  12  12   0   0
  0.3976200E+02  0.5640000E-09  0.5640000E-09  0.1500000E-08  0.5000000E-15
  1.000000000000000E-004
  CAR 
 Crystal                                 
     12.36558528     -8.59773320  301     -0.76684373      1.00000000
     -8.598  0.0000E+00  0.0000E+00  0.0000E+00  0.0000E+00
     -8.528  0.0000E+00  0.0000E+00  0.0000E+00  0.0000E+00
     -8.458  0.0000E+00  0.0000E+00  0.0000E+00  0.0000E+00
     -8.388  0.2211E-31  0.0000E+00  0.1545E-32  0.0000E+00
     -8.318  0.1779E-26  0.0000E+00  0.1243E-27  0.0000E+00
     -8.248  0.5252E-22  0.0000E+00  0.3670E-23  0.0000E+00
     -8.178  0.5651E-18  0.1555E-30  0.3949E-19  0.1087E-31
     -8.109  0.2202E-14  0.1059E-25  0.1539E-15  0.7401E-27
     -8.039  0.3055E-11  0.2644E-21  0.2136E-12  0.1848E-22
     -7.969  0.1481E-08  0.2403E-17  0.1037E-09  0.1679E-18
     -7.899  0.2413E-06  0.7891E-14  0.1696E-07  0.5516E-15
     -7.829  0.1214E-04  0.9209E-11  0.8654E-06  0.6441E-12
     -7.759  0.1435E-03  0.3736E-08  0.1089E-04  0.2617E-09
     -7.689 -0.2952E-03  0.5045E-06 -0.9736E-05  0.3551E-07
     -7.619 -0.2313E-02  0.2054E-04 -0.1713E-03  0.1471E-05
     -7.550  0.1496E-01  0.1756E-03  0.8741E-03  0.1374E-04
     -7.480  0.3127E-01 -0.6646E-03  0.3059E-02 -0.3270E-04
     -7.410  0.5888E-02 -0.1606E-02  0.3470E-02 -0.1449E-03
     -7.340 -0.2148E-02  0.2003E-01  0.3320E-02  0.1255E-02
     -7.270  0.1069E-03  0.2875E-01  0.3328E-02  0.3264E-02
     -7.200  0.7791E-04  0.2438E-02  0.3333E-02  0.3434E-02
     -7.130  0.3847E-05 -0.1674E-02  0.3333E-02  0.3317E-02
     -7.060  0.5118E-07  0.1780E-03  0.3333E-02  0.3330E-02
     -6.991  0.2182E-09  0.5259E-04  0.3333E-02  0.3333E-02
     -6.921  0.3175E-12  0.2037E-05  0.3333E-02  0.3333E-02
     -6.851  0.1642E-15  0.2226E-07  0.3333E-02  0.3333E-02
     -6.781  0.0000E+00  0.7911E-10  0.3333E-02  0.3333E-02
     -6.711  0.0000E+00  0.9659E-13  0.3333E-02  0.3333E-02
     -6.641  0.9593E-29  0.4237E-16  0.3333E-02  0.3333E-02
     -6.571  0.4844E-24  0.0000E+00  0.3333E-02  0.3333E-02
     -6.501  0.8949E-20  0.0000E+00  0.3333E-02  0.3333E-02
     -6.432  0.6004E-16  0.0000E+00  0.3333E-02  0.3333E-02
     -6.362  0.1451E-12  0.0000E+00  0.3333E-02  0.3333E-02
     -6.292  0.1239E-09  0.0000E+00  0.3333E-02  0.3333E-02
     -6.222  0.3639E-07  0.0000E+00  0.3333E-02  0.3333E-02
     -6.152  0.3487E-05  0.0000E+00  0.3334E-02  0.3333E-02
     -6.082  0.9515E-04  0.4966E-28  0.3340E-02  0.3333E-02
     -6.012  0.3715E-03  0.2166E-23  0.3366E-02  0.3333E-02
     -5.942 -0.3101E-02  0.3453E-19  0.3150E-02  0.3333E-02
     -5.873  0.3525E-02  0.1997E-15  0.3396E-02  0.3333E-02
     -5.803  0.5589E-01  0.4151E-12  0.7301E-02  0.3333E-02
     -5.733  0.4240E-01  0.3039E-09  0.1026E-01  0.3333E-02
     -5.663 -0.2655E-02  0.7613E-07  0.1008E-01  0.3333E-02
     -5.593 -0.1536E-02  0.6145E-05  0.9971E-02  0.3334E-02
     -5.523  0.3633E-03  0.1361E-03  0.9997E-02  0.3343E-02
     -5.453  0.5276E-04  0.2811E-03  0.1000E-01  0.3363E-02
     -5.383  0.1330E-03 -0.3983E-02  0.1001E-01  0.3085E-02
     -5.313  0.3463E-03  0.9076E-02  0.1003E-01  0.3719E-02
     -5.244 -0.3343E-02  0.6108E-01  0.9800E-02  0.7987E-02
     -5.174  0.4918E-02  0.3358E-01  0.1014E-01  0.1033E-01
     -5.104  0.6701E-01 -0.4277E-02  0.1483E-01  0.1003E-01
     -5.034  0.7240E-01 -0.8298E-03  0.1989E-01  0.9976E-02
     -4.964  0.2821E-01  0.3116E-03  0.2186E-01  0.9998E-02
     -4.894  0.1482E-01  0.2948E-04  0.2289E-01  0.1000E-01
     -4.824  0.6987E-01  0.6443E-06  0.2778E-01  0.1000E-01
     -4.754  0.1355E+00  0.1324E-05  0.3724E-01  0.1000E-01
     -4.685  0.4648E-01  0.3963E-04  0.4049E-01  0.1000E-01
     -4.615 -0.6539E-02  0.1929E-03  0.4003E-01  0.1002E-01
     -4.545 -0.7296E-03 -0.1331E-02  0.3998E-01  0.9923E-02
     -4.475  0.7703E-03  0.7076E-03  0.4004E-01  0.9973E-02
     -4.405 -0.5679E-02  0.2636E-01  0.3964E-01  0.1181E-01
     -4.335  0.1470E-01  0.2323E-01  0.4067E-01  0.1344E-01
     -4.265  0.1168E+00 -0.5281E-03  0.4883E-01  0.1340E-01
     -4.195  0.1216E+00 -0.2117E-02  0.5732E-01  0.1325E-01
     -4.126  0.3158E-01  0.1581E-03  0.5953E-01  0.1326E-01
     -4.056  0.1243E-01  0.2495E-01  0.6040E-01  0.1501E-01
     -3.986  0.7826E-01  0.2475E-01  0.6587E-01  0.1674E-01
     -3.916  0.7244E-01 -0.1059E-03  0.7093E-01  0.1673E-01
     -3.846  0.6797E-01 -0.1127E-02  0.7568E-01  0.1665E-01
     -3.776  0.5469E-01  0.3443E-03  0.7950E-01  0.1668E-01
     -3.706  0.2466E-01  0.2659E-03  0.8122E-01  0.1669E-01
     -3.636  0.2784E-01 -0.4183E-02  0.8317E-01  0.1640E-01
     -3.567  0.5058E-03  0.1148E-01  0.8320E-01  0.1720E-01
     -3.497  0.7670E-02  0.6108E-01  0.8374E-01  0.2147E-01
     -3.427  0.5914E-01  0.2784E-01  0.8787E-01  0.2342E-01
     -3.357  0.2911E-01  0.3062E-01  0.8990E-01  0.2556E-01
     -3.287  0.5652E-01  0.7213E-01  0.9385E-01  0.3060E-01
     -3.217  0.1191E+00  0.8903E-01  0.1022E+00  0.3682E-01
     -3.147  0.5965E-01  0.4932E-01  0.1063E+00  0.4027E-01
     -3.077  0.7574E-02 -0.2519E-02  0.1069E+00  0.4009E-01
     -3.008 -0.7457E-02 -0.1788E-02  0.1064E+00  0.3996E-01
     -2.938  0.7811E-02  0.4736E-03  0.1069E+00  0.4000E-01
     -2.868  0.9202E-01  0.3074E-03  0.1133E+00  0.4002E-01
     -2.798  0.1462E+00 -0.8789E-03  0.1235E+00  0.3996E-01
     -2.728  0.1499E+00 -0.1929E-02  0.1340E+00  0.3982E-01
     -2.658  0.6734E-01  0.2622E-01  0.1387E+00  0.4166E-01
     -2.588  0.4629E-01  0.5379E-01  0.1420E+00  0.4541E-01
     -2.518  0.3693E-01  0.1821E-01  0.1445E+00  0.4669E-01
     -2.448  0.5410E-01  0.4145E-02  0.1483E+00  0.4698E-01
     -2.379  0.3209E-01  0.7140E-01  0.1506E+00  0.5197E-01
     -2.309  0.8773E-01  0.1020E+00  0.1567E+00  0.5909E-01
     -2.239  0.1726E+00  0.1461E-01  0.1688E+00  0.6011E-01
     -2.169  0.7323E-01  0.1355E-01  0.1739E+00  0.6106E-01
     -2.099 -0.5806E-02  0.6804E-01  0.1735E+00  0.6581E-01
     -2.029 -0.3822E-02  0.4393E-01  0.1732E+00  0.6888E-01
     -1.959 -0.1189E-02  0.4456E-01  0.1731E+00  0.7200E-01
     -1.889  0.4079E-01  0.8723E-01  0.1760E+00  0.7809E-01
     -1.820  0.6342E-01  0.3341E-01  0.1804E+00  0.8043E-01
     -1.750  0.6152E-01 -0.6557E-02  0.1847E+00  0.7997E-01
     -1.680  0.3063E-01 -0.1779E-02  0.1868E+00  0.7984E-01
     -1.610 -0.7573E-02  0.2181E-01  0.1863E+00  0.8137E-01
     -1.540  0.5211E-01  0.2784E-01  0.1899E+00  0.8331E-01
     -1.470  0.1026E+00  0.2032E-02  0.1971E+00  0.8346E-01
     -1.400  0.7523E-01 -0.3181E-02  0.2024E+00  0.8323E-01
     -1.330  0.5927E-01 -0.2654E-02  0.2065E+00  0.8305E-01
     -1.261  0.4464E-01  0.4619E-01  0.2096E+00  0.8628E-01
     -1.191  0.7494E-02  0.7736E-01  0.2102E+00  0.9168E-01
     -1.121 -0.2576E-02  0.2306E-01  0.2100E+00  0.9329E-01
     -1.051  0.1479E-03  0.3511E-01  0.2100E+00  0.9575E-01
     -0.981  0.1210E-03  0.5733E-01  0.2100E+00  0.9975E-01
     -0.911  0.6914E-05  0.3145E-01  0.2100E+00  0.1020E+00
     -0.841  0.1071E-06  0.6225E-01  0.2100E+00  0.1063E+00
     -0.771  0.5322E-09  0.5184E-01  0.2100E+00  0.1099E+00
     -0.702  0.9026E-12  0.4408E-02  0.2100E+00  0.1102E+00
     -0.632  0.5349E-15  0.3003E-01  0.2100E+00  0.1123E+00
     -0.562  0.0000E+00  0.4803E-01  0.2100E+00  0.1157E+00
     -0.492  0.0000E+00  0.3802E-01  0.2100E+00  0.1183E+00
     -0.422  0.0000E+00  0.6946E-01  0.2100E+00  0.1232E+00
     -0.352  0.0000E+00  0.8507E-01  0.2100E+00  0.1291E+00
     -0.282  0.0000E+00  0.3288E-01  0.2100E+00  0.1314E+00
     -0.212  0.0000E+00  0.6311E-01  0.2100E+00  0.1358E+00
     -0.143  0.0000E+00  0.5640E-01  0.2100E+00  0.1398E+00
     -0.073  0.0000E+00  0.4084E-01  0.2100E+00  0.1426E+00
     -0.003  0.0000E+00  0.1199E-01  0.2100E+00  0.1435E+00
      0.067  0.0000E+00 -0.8061E-02  0.2100E+00  0.1429E+00
      0.137  0.0000E+00  0.3644E-01  0.2100E+00  0.1455E+00
      0.207  0.0000E+00  0.8731E-01  0.2100E+00  0.1516E+00
      0.277  0.0000E+00  0.6965E-01  0.2100E+00  0.1564E+00
      0.347  0.0000E+00  0.1100E+00  0.2100E+00  0.1641E+00
      0.416  0.0000E+00  0.8024E-01  0.2100E+00  0.1697E+00
      0.486  0.0000E+00  0.7142E-02  0.2100E+00  0.1702E+00
      0.556  0.0000E+00  0.3041E-01  0.2100E+00  0.1723E+00
      0.626  0.0000E+00  0.7778E-01  0.2100E+00  0.1778E+00
      0.696  0.0000E+00  0.1044E+00  0.2100E+00  0.1851E+00
      0.766  0.0000E+00  0.8008E-01  0.2100E+00  0.1907E+00
      0.836  0.0000E+00  0.6964E-01  0.2100E+00  0.1955E+00
      0.906  0.0000E+00  0.9108E-01  0.2100E+00  0.2019E+00
      0.976  0.0000E+00  0.3418E-01  0.2100E+00  0.2043E+00
      1.045  0.0000E+00  0.4333E-01  0.2100E+00  0.2073E+00
      1.115  0.0000E+00  0.3784E-01  0.2100E+00  0.2100E+00
      1.185  0.0000E+00  0.2024E-02  0.2100E+00  0.2101E+00
      1.255  0.0000E+00 -0.1852E-02  0.2100E+00  0.2100E+00
      1.325  0.0000E+00  0.2423E-03  0.2100E+00  0.2100E+00
      1.395  0.0000E+00  0.6933E-04  0.2100E+00  0.2100E+00
      1.465  0.0000E+00  0.2879E-05  0.2100E+00  0.2100E+00
      1.535  0.0000E+00  0.3413E-07  0.2100E+00  0.2100E+00
      1.604  0.0000E+00  0.1320E-09  0.2100E+00  0.2100E+00
      1.674  0.0000E+00  0.1754E-12  0.2100E+00  0.2100E+00
      1.744  0.0000E+00  0.8474E-16  0.2100E+00  0.2100E+00
      1.814  0.0000E+00  0.0000E+00  0.2100E+00  0.2100E+00
      1.884  0.0000E+00  0.0000E+00  0.2100E+00  0.2100E+00
      1.954  0.0000E+00  0.0000E+00  0.2100E+00  0.2100E+00
      2.024  0.0000E+00  0.0000E+00  0.2100E+00  0.2100E+00
      2.094  0.0000E+00  0.0000E+00  0.2100E+00  0.2100E+00
      2.163  0.0000E+00  0.0000E+00  0.2100E+00  0.2100E+00
      2.233  0.0000E+00  0.0000E+00  0.2100E+00  0.2100E+00
      2.303  0.0000E+00  0.0000E+00  0.2100E+00  0.2100E+00
      2.373  0.0000E+00  0.0000E+00  0.2100E+00  0.2100E+00
      2.443  0.0000E+00  0.0000E+00  0.2100E+00  0.2100E+00
      2.513  0.0000E+00  0.0000E+00  0.2100E+00  0.2100E+00
      2.583  0.0000E+00  0.0000E+00  0.2100E+00  0.2100E+00
      2.653  0.0000E+00  0.0000E+00  0.2100E+00  0.2100E+00
      2.722  0.0000E+00  0.0000E+00  0.2100E+00  0.2100E+00
      2.792  0.0000E+00  0.0000E+00  0.2100E+00  0.2100E+00
      2.862  0.0000E+00  0.0000E+00  0.2100E+00  0.2100E+00
      2.932  0.0000E+00  0.0000E+00  0.2100E+00  0.2100E+00
      3.002  0.0000E+00  0.0000E+00  0.2100E+00  0.2100E+00
      3.072  0.0000E+00  0.0000E+00  0.2100E+00  0.2100E+00
      3.142  0.0000E+00  0.0000E+00  0.2100E+00  0.2100E+00
      3.212  0.0000E+00  0.0000E+00  0.2100E+00  0.2100E+00
      3.281  0.0000E+00  0.0000E+00  0.2100E+00  0.2100E+00
      3.351  0.0000E+00  0.0000E+00  0.2100E+00  0.2100E+00
      3.421  0.0000E+00  0.0000E+00  0.2100E+00  0.2100E+00
      3.491  0.0000E+00  0.0000E+00  0.2100E+00  0.2100E+00
      3.561  0.0000E+00  0.0000E+00  0.2100E+00  0.2100E+00
      3.631  0.0000E+00  0.0000E+00  0.2100E+00  0.2100E+00
      3.701  0.0000E+00  0.0000E+00  0.2100E+00  0.2100E+00
      3.771  0.0000E+00  0.0000E+00  0.2100E+00  0.2100E+00
      3.841  0.0000E+00  0.0000E+00  0.2100E+00  0.2100E+00
      3.910  0.0000E+00  0.0000E+00  0.2100E+00  0.2100E+00
      3.980  0.0000E+00  0.0000E+00  0.2100E+00  0.2100E+00
      4.050  0.0000E+00  0.0000E+00  0.2100E+00  0.2100E+00
      4.120  0.0000E+00  0.0000E+00  0.2100E+00  0.2100E+00
      4.190  0.0000E+00  0.0000E+00  0.2100E+00  0.2100E+00
      4.260  0.0000E+00  0.0000E+00  0.2100E+00  0.2100E+00
      4.330  0.0000E+00  0.0000E+00  0.2100E+00  0.2100E+00
      4.400  0.0000E+00  0.0000E+00  0.2100E+00  0.2100E+00
      4.469  0.0000E+00  0.0000E+00  0.2100E+00  0.2100E+00
      4.539  0.0000E+00  0.0000E+00  0.2100E+00  0.2100E+00
      4.609  0.0000E+00  0.0000E+00  0.2100E+00  0.2100E+00
      4.679  0.0000E+00  0.0000E+00  0.2100E+00  0.2100E+00
      4.749  0.0000E+00  0.0000E+00  0.2100E+00  0.2100E+00
      4.819  0.0000E+00  0.0000E+00  0.2100E+00  0.2100E+00
      4.889  0.0000E+00  0.0000E+00  0.2100E+00  0.2100E+00
      4.959  0.0000E+00  0.0000E+00  0.2100E+00  0.2100E+00
      5.028  0.0000E+00  0.0000E+00  0.2100E+00  0.2100E+00
      5.098  0.0000E+00  0.0000E+00  0.2100E+00  0.2100E+00
      5.168  0.0000E+00  0.0000E+00  0.2100E+00  0.2100E+00
      5.238  0.0000E+00  0.0000E+00  0.2100E+00  0.2100E+00
      5.308  0.0000E+00  0.0000E+00  0.2100E+00  0.2100E+00
      5.378  0.0000E+00  0.0000E+00  0.2100E+00  0.2100E+00
      5.448  0.0000E+00  0.0000E+00  0.2100E+00  0.2100E+00
      5.518  0.0000E+00  0.0000E+00  0.2100E+00  0.2100E+00
      5.587  0.0000E+00  0.0000E+00  0.2100E+00  0.2100E+00
      5.657  0.0000E+00  0.0000E+00  0.2100E+00  0.2100E+00
      5.727  0.0000E+00  0.0000E+00  0.2100E+00  0.2100E+00
      5.797  0.0000E+00  0.0000E+00  0.2100E+00  0.2100E+00
      5.867  0.0000E+00  0.0000E+00  0.2100E+00  0.2100E+00
      5.937  0.0000E+00  0.0000E+00  0.2100E+00  0.2100E+00
      6.007  0.0000E+00  0.0000E+00  0.2100E+00  0.2100E+00
      6.077  0.0000E+00  0.0000E+00  0.2100E+00  0.2100E+00
      6.146  0.0000E+00  0.0000E+00  0.2100E+00  0.2100E+00
      6.216  0.0000E+00  0.0000E+00  0.2100E+00  0.2100E+00
      6.286  0.0000E+00  0.0000E+00  0.2100E+00  0.2100E+00
      6.356  0.0000E+00  0.0000E+00  0.2100E+00  0.2100E+00
      6.426  0.0000E+00  0.0000E+00  0.2100E+00  0.2100E+00
      6.496  0.0000E+00  0.0000E+00  0.2100E+00  0.2100E+00
      6.566  0.0000E+00  0.0000E+00  0.2100E+00  0.2100E+00
      6.636  0.0000E+00  0.0000E+00  0.2100E+00  0.2100E+00
      6.705  0.0000E+00  0.0000E+00  0.2100E+00  0.2100E+00
      6.775  0.0000E+00  0.0000E+00  0.2100E+00  0.2100E+00
      6.845  0.0000E+00  0.0000E+00  0.2100E+00  0.2100E+00
      6.915  0.0000E+00  0.0000E+00  0.2100E+00  0.2100E+00
      6.985  0.0000E+00  0.0000E+00  0.2100E+00  0.2100E+00
      7.055  0.0000E+00  0.0000E+00  0.2100E+00  0.2100E+00
      7.125  0.0000E+00  0.0000E+00  0.2100E+00  0.2100E+00
      7.195  0.0000E+00  0.0000E+00  0.2100E+00  0.2100E+00
      7.265  0.0000E+00  0.0000E+00  0.2100E+00  0.2100E+00
      7.334  0.0000E+00  0.0000E+00  0.2100E+00  0.2100E+00
      7.404  0.0000E+00  0.0000E+00  0.2100E+00  0.2100E+00
      7.474  0.0000E+00  0.0000E+00  0.2100E+00  0.2100E+00
      7.544  0.0000E+00  0.0000E+00  0.2100E+00  0.2100E+00
      7.614  0.0000E+00  0.0000E+00  0.2100E+00  0.2100E+00
      7.684  0.0000E+00  0.0000E+00  0.2100E+00  0.2100E+00
      7.754  0.0000E+00  0.0000E+00  0.2100E+00  0.2100E+00
      7.824  0.0000E+00  0.0000E+00  0.2100E+00  0.2100E+00
      7.893  0.0000E+00  0.0000E+00  0.2100E+00  0.2100E+00
      7.963  0.0000E+00  0.0000E+00  0.2100E+00  0.2100E+00
      8.033  0.0000E+00  0.0000E+00  0.2100E+00  0.2100E+00
      8.103  0.0000E+00  0.0000E+00  0.2100E+00  0.2100E+00
      8.173  0.0000E+00  0.0000E+00  0.2100E+00  0.2100E+00
      8.243  0.0000E+00  0.0000E+00  0.2100E+00  0.2100E+00
      8.313  0.0000E+00  0.0000E+00  0.2100E+00  0.2100E+00
      8.383  0.0000E+00  0.0000E+00  0.2100E+00  0.2100E+00
      8.452  0.0000E+00  0.0000E+00  0.2100E+00  0.2100E+00
      8.522  0.0000E+00  0.0000E+00  0.2100E+00  0.2100E+00
      8.592  0.0000E+00  0.0000E+00  0.2100E+00  0.2100E+00
      8.662  0.0000E+00  0.0000E+00  0.2100E+00  0.2100E+00
      8.732  0.0000E+00  0.0000E+00  0.2100E+00  0.2100E+00
      8.802  0.0000E+00  0.0000E+00  0.2100E+00  0.2100E+00
      8.872  0.0000E+00  0.0000E+00  0.2100E+00  0.2100E+00
      8.942  0.0000E+00  0.0000E+00  0.2100E+00  0.2100E+00
      9.011  0.0000E+00  0.0000E+00  0.2100E+00  0.2100E+00
      9.081  0.0000E+00  0.0000E+00  0.2100E+00  0.2100E+00
      9.151  0.0000E+00  0.0000E+00  0.2100E+00  0.2100E+00
      9.221  0.0000E+00  0.0000E+00  0.2100E+00  0.2100E+00
      9.291  0.0000E+00  0.0000E+00  0.2100E+00  0.2100E+00
      9.361  0.0000E+00  0.0000E+00  0.2100E+00  0.2100E+00
      9.431  0.0000E+00  0.0000E+00  0.2100E+00  0.2100E+00
      9.501  0.0000E+00  0.0000E+00  0.2100E+00  0.2100E+00
      9.570  0.0000E+00  0.0000E+00  0.2100E+00  0.2100E+00
      9.640  0.0000E+00  0.0000E+00  0.2100E+00  0.2100E+00
      9.710  0.0000E+00  0.0000E+00  0.2100E+00  0.2100E+00
      9.780  0.0000E+00  0.0000E+00  0.2100E+00  0.2100E+00
      9.850  0.0000E+00  0.0000E+00  0.2100E+00  0.2100E+00
      9.920  0.0000E+00  0.0000E+00  0.2100E+00  0.2100E+00
      9.990  0.0000E+00  0.0000E+00  0.2100E+00  0.2100E+00
     10.060  0.0000E+00  0.0000E+00  0.2100E+00  0.2100E+00
     10.129  0.0000E+00  0.0000E+00  0.2100E+00  0.2100E+00
     10.199  0.0000E+00  0.0000E+00  0.2100E+00  0.2100E+00
     10.269  0.0000E+00  0.0000E+00  0.2100E+00  0.2100E+00
     10.339  0.0000E+00  0.0000E+00  0.2100E+00  0.2100E+00
     10.409  0.0000E+00  0.0000E+00  0.2100E+00  0.2100E+00
     10.479  0.0000E+00  0.0000E+00  0.2100E+00  0.2100E+00
     10.549  0.0000E+00  0.0000E+00  0.2100E+00  0.2100E+00
     10.619  0.0000E+00  0.0000E+00  0.2100E+00  0.2100E+00
     10.689  0.0000E+00  0.0000E+00  0.2100E+00  0.2100E+00
     10.758  0.0000E+00  0.0000E+00  0.2100E+00  0.2100E+00
     10.828  0.0000E+00  0.0000E+00  0.2100E+00  0.2100E+00
     10.898  0.0000E+00  0.0000E+00  0.2100E+00  0.2100E+00
     10.968  0.0000E+00  0.0000E+00  0.2100E+00  0.2100E+00
     11.038  0.0000E+00  0.0000E+00  0.2100E+00  0.2100E+00
     11.108  0.0000E+00  0.0000E+00  0.2100E+00  0.2100E+00
     11.178  0.0000E+00  0.0000E+00  0.2100E+00  0.2100E+00
     11.248  0.0000E+00  0.0000E+00  0.2100E+00  0.2100E+00
     11.317  0.0000E+00  0.0000E+00  0.2100E+00  0.2100E+00
     11.387  0.0000E+00  0.0000E+00  0.2100E+00  0.2100E+00
     11.457  0.0000E+00  0.0000E+00  0.2100E+00  0.2100E+00
     11.527  0.0000E+00  0.0000E+00  0.2100E+00  0.2100E+00
     11.597  0.0000E+00  0.0000E+00  0.2100E+00  0.2100E+00
     11.667  0.0000E+00  0.0000E+00  0.2100E+00  0.2100E+00
     11.737  0.0000E+00  0.0000E+00  0.2100E+00  0.2100E+00
     11.807  0.0000E+00  0.0000E+00  0.2100E+00  0.2100E+00
     11.876  0.0000E+00  0.0000E+00  0.2100E+00  0.2100E+00
     11.946  0.0000E+00  0.0000E+00  0.2100E+00  0.2100E+00
     12.016  0.0000E+00  0.0000E+00  0.2100E+00  0.2100E+00
     12.086  0.0000E+00  0.0000E+00  0.2100E+00  0.2100E+00
     12.156  0.0000E+00  0.0000E+00  0.2100E+00  0.2100E+00
     12.226  0.0000E+00  0.0000E+00  0.2100E+00  0.2100E+00
     12.296  0.0000E+00  0.0000E+00  0.2100E+00  0.2100E+00
     12.366  0.0000E+00  0.0000E+00  0.2100E+00  0.2100E+00
