   12   12  300    2
  0.3976200E+02  0.5640000E-09  0.5640000E-09  0.1500000E-08  0.5000000E-15
  1.000000000000000E-004
  CAR 
 Crystal                                 
   96    1   63
 
  0.2500000E+00  0.2500000E+00  0.0000000E+00  0.1000000E+01
   1       -7.526116     -7.328119
   2       -5.811682     -5.262866
   3       -5.811682     -5.262866
   4       -5.134944     -4.409275
   5       -5.089304     -4.055900
   6       -5.085714     -3.519122
   7       -4.966108     -3.519122
   8       -4.826038     -3.345518
   9       -4.826038     -3.345518
  10       -4.788294     -3.256715
  11       -4.788294     -3.237109
  12       -4.751789     -3.208615
  13       -4.315724     -2.656330
  14       -4.279115     -2.597904
  15       -4.255261     -2.422684
  16       -4.255261     -2.352846
  17       -4.247946     -2.350820
  18       -4.161838     -2.350820
  19       -4.011518     -2.136014
  20       -3.990163     -2.136014
  21       -3.990162     -2.047103
  22       -3.873038     -1.951588
  23       -3.873038     -1.910523
  24       -3.807548     -1.910523
  25       -3.688017     -1.601519
  26       -3.445792     -1.255475
  27       -3.445792     -1.255475
  28       -3.286292     -1.191780
  29       -3.286292     -1.038214
  30       -3.247513     -1.038214
  31       -3.239477     -0.920146
  32       -3.172961     -0.834400
  33       -2.890833     -0.834400
  34       -2.890831     -0.649649
  35       -2.864778     -0.577728
  36       -2.845630     -0.500754
  37       -2.784605     -0.405272
  38       -2.784605     -0.401839
  39       -2.763492     -0.401839
  40       -2.749109     -0.249672
  41       -2.749109     -0.249672
  42       -2.644411     -0.168691
  43       -2.607992     -0.096010
  44       -2.494202      0.148740
  45       -2.461928      0.167863
  46       -2.361079      0.183143
  47       -2.290053      0.284143
  48       -2.290051      0.284143
  49       -2.284588      0.327385
  50       -2.283798      0.369195
  51       -2.233355      0.369195
  52       -2.233355      0.538943
  53       -1.882798      0.609156
  54       -1.882798      0.609157
  55       -1.779446      0.694810
  56       -1.754646      0.697585
  57       -1.532114      0.697585
  58       -1.532091      0.788869
  59       -1.514820      0.845216
  60       -1.437953      0.866155
  61       -1.425305      0.881592
  62       -1.349694      1.003949
  63       -1.296576      1.062991
