 vasp.5.3.3 18Dez12 (build Sep  7 2015 22:32:56) complex                        
  
 executed on             LinuxIFC date 2022.12.08  15:55:16
 running on    1 total cores
 distrk:  each k-point on    1 cores,    1 groups
 distr:  one band on NCORES_PER_BAND=   1 cores,    1 groups


--------------------------------------------------------------------------------------------------------


 INCAR:
 POTCAR:    PAW_PBE Fe 06Sep2000                  
 POTCAR:    PAW_PBE Fe 06Sep2000                  
   VRHFIN =Fe:  d7 s1                                                           
   LEXCH  = PE                                                                  
   EATOM  =   594.3153 eV,   43.6809 Ry                                         
                                                                                
   TITEL  = PAW_PBE Fe 06Sep2000                                                
   LULTRA =        F    use ultrasoft PP ?                                      
   IUNSCR =        1    unscreen: 0-lin 1-nonlin 2-no                           
   RPACOR =    2.000    partial core radius                                     
   POMASS =   55.847; ZVAL   =    8.000    mass and valenz                      
   RCORE  =    2.300    outmost cutoff radius                                   
   RWIGS  =    2.460; RWIGS  =    1.302    wigner-seitz radius (au A)           
   ENMAX  =  267.882; ENMIN  =  200.911 eV                                      
   RCLOC  =    1.701    cutoff for local pot                                    
   LCOR   =        T    correct aug charges                                     
   LPAW   =        T    paw PP                                                  
   EAUG   =  511.368                                                            
   DEXC   =    0.000                                                            
   RMAX   =    2.356    core radius for proj-oper                               
   RAUG   =    1.300    factor for augmentation sphere                          
   RDEP   =    2.442    radius for radial grids                                 
   RDEPT  =    1.890    core radius for aug-charge                              
                                                                                
   Atomic configuration                                                         
    9 entries                                                                   
     n  l   j            E        occ.                                          
     1  0  0.50     -6993.8440   2.0000                                         
     2  0  0.50      -814.6047   2.0000                                         
     2  1  1.50      -693.3689   6.0000                                         
     3  0  0.50       -89.4732   2.0000                                         
     3  1  1.50       -55.6373   6.0000                                         
     3  2  2.50        -3.8151   7.0000                                         
     4  0  0.50        -4.2551   1.0000                                         
     4  1  1.50        -3.4015   0.0000                                         
     4  3  2.50        -1.3606   0.0000                                         
   Description                                                                  
     l       E           TYP  RCUT    TYP  RCUT                                 
     2     -3.8151135     23  2.300                                             
     2     -5.1756961     23  2.300                                             
     0     -4.2550963     23  2.300                                             
     0      7.2035603     23  2.300                                             
     1     -2.7211652     23  2.300                                             
     1     18.4316424     23  2.300                                             
  local pseudopotential read in
  partial core-charges read in
  partial kinetic energy density read in
  atomic valenz-charges read in
  non local Contribution for L=           2  read in
    real space projection operators read in
  non local Contribution for L=           2  read in
    real space projection operators read in
  non local Contribution for L=           0  read in
    real space projection operators read in
  non local Contribution for L=           0  read in
    real space projection operators read in
  non local Contribution for L=           1  read in
    real space projection operators read in
  non local Contribution for L=           1  read in
    real space projection operators read in
    PAW grid and wavefunctions read in
 
   number of l-projection  operators is LMAX  =           6
   number of lm-projection operators is LMMAX =          18
 
  PAW_PBE Fe 06Sep2000                  :
 energy of atom  1       EATOM= -594.3153
 kinetic energy error for atom=    0.0205 (will be added to EATOM!!)
 
 
 POSCAR: header                                  
  positions in cartesian coordinates
  No initial velocities read in
 exchange correlation table for  LEXCH =        8
   RHO(1)=    0.500       N(1)  =     2000
   RHO(2)=  100.500       N(2)  =     4000
 


--------------------------------------------------------------------------------------------------------


 ion  position               nearest neighbor table
   1  0.000  0.000  0.000-   5 2.44   6 2.44   7 2.44   8 2.44   2 2.82   3 2.82   3 2.82   2 2.82
                             9 2.82
   2  0.500  0.000  0.000-   5 2.44   6 2.44   7 2.44   8 2.44   1 2.82   4 2.82   4 2.82   1 2.82
                            10 2.82
   3  0.000  0.500  0.000-   5 2.44   6 2.44   7 2.44   8 2.44   1 2.82   4 2.82   1 2.82   4 2.82
                            11 2.82
   4  0.500  0.500  0.000-   5 2.44   6 2.44   7 2.44   8 2.44   2 2.82   3 2.82   2 2.82   3 2.82
                            12 2.82
   5  0.250  0.250  0.094-   1 2.44   2 2.44   3 2.44   4 2.44   9 2.44  10 2.44  11 2.44  12 2.44
                             6 2.82   7 2.82   7 2.82   6 2.82
   6  0.750  0.250  0.094-   1 2.44   2 2.44   3 2.44   4 2.44   9 2.44  10 2.44  11 2.44  12 2.44
                             5 2.82   8 2.82   8 2.82   5 2.82
   7  0.250  0.750  0.094-   1 2.44   2 2.44   3 2.44   4 2.44   9 2.44  10 2.44  11 2.44  12 2.44
                             5 2.82   8 2.82   5 2.82   8 2.82
   8  0.750  0.750  0.094-   1 2.44   2 2.44   3 2.44   4 2.44   9 2.44  10 2.44  11 2.44  12 2.44
                             6 2.82   7 2.82   6 2.82   7 2.82
   9  0.000  0.000  0.188-   5 2.44   6 2.44   7 2.44   8 2.44  10 2.82  11 2.82  11 2.82  10 2.82
                             1 2.82
  10  0.500  0.000  0.188-   5 2.44   6 2.44   7 2.44   8 2.44   9 2.82  12 2.82  12 2.82   9 2.82
                             2 2.82
  11  0.000  0.500  0.188-   5 2.44   6 2.44   7 2.44   8 2.44   9 2.82  12 2.82   9 2.82  12 2.82
                             3 2.82
  12  0.500  0.500  0.188-   5 2.44   6 2.44   7 2.44   8 2.44  10 2.82  11 2.82  10 2.82  11 2.82
                             4 2.82
 
  LATTYP: Found a simple tetragonal cell.
 ALAT       =     5.6400000000
 C/A-ratio  =     2.6595744681
  
  Lattice vectors:
  
 A1 = (   5.6400000000,   0.0000000000,   0.0000000000)
 A2 = (   0.0000000000,   5.6400000000,   0.0000000000)
 A3 = (   0.0000000000,   0.0000000000,  15.0000000000)


Analysis of symmetry for initial positions (statically):
=====================================================================
 Subroutine PRICEL returns following result:
 
  LATTYP: Found a simple tetragonal cell.
 ALAT       =     2.8200000000
 C/A-ratio  =     5.3191489362
  
  Lattice vectors:
  
 A1 = (   2.8200000000,   0.0000000000,   0.0000000000)
 A2 = (   0.0000000000,   2.8200000000,   0.0000000000)
 A3 = (   0.0000000000,   0.0000000000,  15.0000000000)
 
   4 primitive cells build up your supercell.
 

 Routine SETGRP: Setting up the symmetry group for a 
 simple tetragonal supercell.


 Subroutine GETGRP returns: Found 16 space group operations
 (whereof  8 operations were pure point group operations)
 out of a pool of 16 trial point group operations.


The static configuration has the point symmetry C_4v.
 The point group associated with its full space group is D_4h.


Analysis of symmetry for dynamics (positions and initial velocities):
=====================================================================
 Subroutine PRICEL returns following result:
 
  LATTYP: Found a simple tetragonal cell.
 ALAT       =     2.8200000000
 C/A-ratio  =     5.3191489362
  
  Lattice vectors:
  
 A1 = (   2.8200000000,   0.0000000000,   0.0000000000)
 A2 = (   0.0000000000,   2.8200000000,   0.0000000000)
 A3 = (   0.0000000000,   0.0000000000,  15.0000000000)
 
   4 primitive cells build up your supercell.
 

 Routine SETGRP: Setting up the symmetry group for a 
 simple tetragonal supercell.


 Subroutine GETGRP returns: Found 16 space group operations
 (whereof  8 operations were pure point group operations)
 out of a pool of 16 trial point group operations.


The dynamic configuration has the point symmetry C_4v.
 The point group associated with its full space group is D_4h.


Analysis of constrained symmetry for selective dynamics:
=====================================================================
 Subroutine PRICEL returns following result:
 
  LATTYP: Found a simple tetragonal cell.
 ALAT       =     2.8200000000
 C/A-ratio  =     5.3191489362
  
  Lattice vectors:
  
 A1 = (   2.8200000000,   0.0000000000,   0.0000000000)
 A2 = (   0.0000000000,   2.8200000000,   0.0000000000)
 A3 = (   0.0000000000,   0.0000000000,  15.0000000000)
 
   4 primitive cells build up your supercell.
 

 Routine SETGRP: Setting up the symmetry group for a 
 simple tetragonal supercell.


 Subroutine GETGRP returns: Found  8 space group operations
 (whereof  8 operations were pure point group operations)
 out of a pool of 16 trial point group operations.


The constrained configuration has the point symmetry C_4v.


Analysis of magnetic symmetry:
=====================================================================

 Subroutine MAGSYM returns: Found  8 space group operations
 (whereof  8 operations were pure point group operations)
 out of a pool of  8 trial space group operations
 (whereof  8 operations were pure point group operations)
 and found also     4 'primitive' translations


The magnetic configuration has the point symmetry C_4v.


 irot  :   1
 --------------------------------------------------------------------
 isymop:   1   0   0
           0   1   0
           0   0   1

 gtrans:     0.0000000     0.0000000     0.0000000

 ptrans:     0.0000000     0.0000000     0.0000000
 rotmap:
 (   1->   1)  (   2->   2)  (   3->   3)  (   4->   4)  (   5->   5) 
 (   6->   6)  (   7->   7)  (   8->   8)  (   9->   9)  (  10->  10) 
 (  11->  11)  (  12->  12) 

 ptrans:     0.5000000     0.0000000     0.0000000
 rotmap:
 (   1->   2)  (   2->   1)  (   3->   4)  (   4->   3)  (   5->   6) 
 (   6->   5)  (   7->   8)  (   8->   7)  (   9->  10)  (  10->   9) 
 (  11->  12)  (  12->  11) 

 ptrans:     0.0000000     0.5000000     0.0000000
 rotmap:
 (   1->   3)  (   2->   4)  (   3->   1)  (   4->   2)  (   5->   7) 
 (   6->   8)  (   7->   5)  (   8->   6)  (   9->  11)  (  10->  12) 
 (  11->   9)  (  12->  10) 

 ptrans:     0.5000000     0.5000000     0.0000000
 rotmap:
 (   1->   4)  (   2->   3)  (   3->   2)  (   4->   1)  (   5->   8) 
 (   6->   7)  (   7->   6)  (   8->   5)  (   9->  12)  (  10->  11) 
 (  11->  10)  (  12->   9) 


 irot  :   2
 --------------------------------------------------------------------
 isymop:   0  -1   0
           1   0   0
           0   0   1

 gtrans:     0.0000000     0.0000000     0.0000000

 ptrans:     0.0000000     0.0000000     0.0000000
 rotmap:
 (   1->   1)  (   2->   3)  (   3->   2)  (   4->   4)  (   5->   6) 
 (   6->   8)  (   7->   5)  (   8->   7)  (   9->   9)  (  10->  11) 
 (  11->  10)  (  12->  12) 

 ptrans:     0.5000000     0.0000000     0.0000000
 rotmap:
 (   1->   2)  (   2->   4)  (   3->   1)  (   4->   3)  (   5->   5) 
 (   6->   7)  (   7->   6)  (   8->   8)  (   9->  10)  (  10->  12) 
 (  11->   9)  (  12->  11) 

 ptrans:     0.0000000     0.5000000     0.0000000
 rotmap:
 (   1->   3)  (   2->   1)  (   3->   4)  (   4->   2)  (   5->   8) 
 (   6->   6)  (   7->   7)  (   8->   5)  (   9->  11)  (  10->   9) 
 (  11->  12)  (  12->  10) 

 ptrans:     0.5000000     0.5000000     0.0000000
 rotmap:
 (   1->   4)  (   2->   2)  (   3->   3)  (   4->   1)  (   5->   7) 
 (   6->   5)  (   7->   8)  (   8->   6)  (   9->  12)  (  10->  10) 
 (  11->  11)  (  12->   9) 


 irot  :   3
 --------------------------------------------------------------------
 isymop:  -1   0   0
           0  -1   0
           0   0   1

 gtrans:     0.0000000     0.0000000     0.0000000

 ptrans:     0.0000000     0.0000000     0.0000000
 rotmap:
 (   1->   1)  (   2->   2)  (   3->   3)  (   4->   4)  (   5->   8) 
 (   6->   7)  (   7->   6)  (   8->   5)  (   9->   9)  (  10->  10) 
 (  11->  11)  (  12->  12) 

 ptrans:     0.5000000     0.0000000     0.0000000
 rotmap:
 (   1->   2)  (   2->   1)  (   3->   4)  (   4->   3)  (   5->   7) 
 (   6->   8)  (   7->   5)  (   8->   6)  (   9->  10)  (  10->   9) 
 (  11->  12)  (  12->  11) 

 ptrans:     0.0000000     0.5000000     0.0000000
 rotmap:
 (   1->   3)  (   2->   4)  (   3->   1)  (   4->   2)  (   5->   6) 
 (   6->   5)  (   7->   8)  (   8->   7)  (   9->  11)  (  10->  12) 
 (  11->   9)  (  12->  10) 

 ptrans:     0.5000000     0.5000000     0.0000000
 rotmap:
 (   1->   4)  (   2->   3)  (   3->   2)  (   4->   1)  (   5->   5) 
 (   6->   6)  (   7->   7)  (   8->   8)  (   9->  12)  (  10->  11) 
 (  11->  10)  (  12->   9) 


 irot  :   4
 --------------------------------------------------------------------
 isymop:   0   1   0
          -1   0   0
           0   0   1

 gtrans:     0.0000000     0.0000000     0.0000000

 ptrans:     0.0000000     0.0000000     0.0000000
 rotmap:
 (   1->   1)  (   2->   3)  (   3->   2)  (   4->   4)  (   5->   7) 
 (   6->   5)  (   7->   8)  (   8->   6)  (   9->   9)  (  10->  11) 
 (  11->  10)  (  12->  12) 

 ptrans:     0.5000000     0.0000000     0.0000000
 rotmap:
 (   1->   2)  (   2->   4)  (   3->   1)  (   4->   3)  (   5->   8) 
 (   6->   6)  (   7->   7)  (   8->   5)  (   9->  10)  (  10->  12) 
 (  11->   9)  (  12->  11) 

 ptrans:     0.0000000     0.5000000     0.0000000
 rotmap:
 (   1->   3)  (   2->   1)  (   3->   4)  (   4->   2)  (   5->   5) 
 (   6->   7)  (   7->   6)  (   8->   8)  (   9->  11)  (  10->   9) 
 (  11->  12)  (  12->  10) 

 ptrans:     0.5000000     0.5000000     0.0000000
 rotmap:
 (   1->   4)  (   2->   2)  (   3->   3)  (   4->   1)  (   5->   6) 
 (   6->   8)  (   7->   5)  (   8->   7)  (   9->  12)  (  10->  10) 
 (  11->  11)  (  12->   9) 


 irot  :   5
 --------------------------------------------------------------------
 isymop:   1   0   0
           0  -1   0
           0   0   1

 gtrans:     0.0000000     0.0000000     0.0000000

 ptrans:     0.0000000     0.0000000     0.0000000
 rotmap:
 (   1->   1)  (   2->   2)  (   3->   3)  (   4->   4)  (   5->   7) 
 (   6->   8)  (   7->   5)  (   8->   6)  (   9->   9)  (  10->  10) 
 (  11->  11)  (  12->  12) 

 ptrans:     0.5000000     0.0000000     0.0000000
 rotmap:
 (   1->   2)  (   2->   1)  (   3->   4)  (   4->   3)  (   5->   8) 
 (   6->   7)  (   7->   6)  (   8->   5)  (   9->  10)  (  10->   9) 
 (  11->  12)  (  12->  11) 

 ptrans:     0.0000000     0.5000000     0.0000000
 rotmap:
 (   1->   3)  (   2->   4)  (   3->   1)  (   4->   2)  (   5->   5) 
 (   6->   6)  (   7->   7)  (   8->   8)  (   9->  11)  (  10->  12) 
 (  11->   9)  (  12->  10) 

 ptrans:     0.5000000     0.5000000     0.0000000
 rotmap:
 (   1->   4)  (   2->   3)  (   3->   2)  (   4->   1)  (   5->   6) 
 (   6->   5)  (   7->   8)  (   8->   7)  (   9->  12)  (  10->  11) 
 (  11->  10)  (  12->   9) 


 irot  :   6
 --------------------------------------------------------------------
 isymop:   0  -1   0
          -1   0   0
           0   0   1

 gtrans:     0.0000000     0.0000000     0.0000000

 ptrans:     0.0000000     0.0000000     0.0000000
 rotmap:
 (   1->   1)  (   2->   3)  (   3->   2)  (   4->   4)  (   5->   8) 
 (   6->   6)  (   7->   7)  (   8->   5)  (   9->   9)  (  10->  11) 
 (  11->  10)  (  12->  12) 

 ptrans:     0.5000000     0.0000000     0.0000000
 rotmap:
 (   1->   2)  (   2->   4)  (   3->   1)  (   4->   3)  (   5->   7) 
 (   6->   5)  (   7->   8)  (   8->   6)  (   9->  10)  (  10->  12) 
 (  11->   9)  (  12->  11) 

 ptrans:     0.0000000     0.5000000     0.0000000
 rotmap:
 (   1->   3)  (   2->   1)  (   3->   4)  (   4->   2)  (   5->   6) 
 (   6->   8)  (   7->   5)  (   8->   7)  (   9->  11)  (  10->   9) 
 (  11->  12)  (  12->  10) 

 ptrans:     0.5000000     0.5000000     0.0000000
 rotmap:
 (   1->   4)  (   2->   2)  (   3->   3)  (   4->   1)  (   5->   5) 
 (   6->   7)  (   7->   6)  (   8->   8)  (   9->  12)  (  10->  10) 
 (  11->  11)  (  12->   9) 


 irot  :   7
 --------------------------------------------------------------------
 isymop:  -1   0   0
           0   1   0
           0   0   1

 gtrans:     0.0000000     0.0000000     0.0000000

 ptrans:     0.0000000     0.0000000     0.0000000
 rotmap:
 (   1->   1)  (   2->   2)  (   3->   3)  (   4->   4)  (   5->   6) 
 (   6->   5)  (   7->   8)  (   8->   7)  (   9->   9)  (  10->  10) 
 (  11->  11)  (  12->  12) 

 ptrans:     0.5000000     0.0000000     0.0000000
 rotmap:
 (   1->   2)  (   2->   1)  (   3->   4)  (   4->   3)  (   5->   5) 
 (   6->   6)  (   7->   7)  (   8->   8)  (   9->  10)  (  10->   9) 
 (  11->  12)  (  12->  11) 

 ptrans:     0.0000000     0.5000000     0.0000000
 rotmap:
 (   1->   3)  (   2->   4)  (   3->   1)  (   4->   2)  (   5->   8) 
 (   6->   7)  (   7->   6)  (   8->   5)  (   9->  11)  (  10->  12) 
 (  11->   9)  (  12->  10) 

 ptrans:     0.5000000     0.5000000     0.0000000
 rotmap:
 (   1->   4)  (   2->   3)  (   3->   2)  (   4->   1)  (   5->   7) 
 (   6->   8)  (   7->   5)  (   8->   6)  (   9->  12)  (  10->  11) 
 (  11->  10)  (  12->   9) 


 irot  :   8
 --------------------------------------------------------------------
 isymop:   0   1   0
           1   0   0
           0   0   1

 gtrans:     0.0000000     0.0000000     0.0000000

 ptrans:     0.0000000     0.0000000     0.0000000
 rotmap:
 (   1->   1)  (   2->   3)  (   3->   2)  (   4->   4)  (   5->   5) 
 (   6->   7)  (   7->   6)  (   8->   8)  (   9->   9)  (  10->  11) 
 (  11->  10)  (  12->  12) 

 ptrans:     0.5000000     0.0000000     0.0000000
 rotmap:
 (   1->   2)  (   2->   4)  (   3->   1)  (   4->   3)  (   5->   6) 
 (   6->   8)  (   7->   5)  (   8->   7)  (   9->  10)  (  10->  12) 
 (  11->   9)  (  12->  11) 

 ptrans:     0.0000000     0.5000000     0.0000000
 rotmap:
 (   1->   3)  (   2->   1)  (   3->   4)  (   4->   2)  (   5->   7) 
 (   6->   5)  (   7->   8)  (   8->   6)  (   9->  11)  (  10->   9) 
 (  11->  12)  (  12->  10) 

 ptrans:     0.5000000     0.5000000     0.0000000
 rotmap:
 (   1->   4)  (   2->   2)  (   3->   3)  (   4->   1)  (   5->   8) 
 (   6->   6)  (   7->   7)  (   8->   5)  (   9->  12)  (  10->  10) 
 (  11->  11)  (  12->   9) 
 
 
 KPOINTS: K-Points                                

Automatic generation of k-mesh.
Space group operators:
 irot       det(A)        alpha          n_x          n_y          n_z        tau_x        tau_y        tau_z
    1     1.000000     0.000000     1.000000     0.000000     0.000000     0.000000     0.000000     0.000000
    2     1.000000    90.000000     0.000000     0.000000    -1.000000     0.000000     0.000000     0.000000
    3     1.000000   180.000000     0.000000     0.000000     1.000000     0.000000     0.000000     0.000000
    4     1.000000    90.000000     0.000000     0.000000     1.000000     0.000000     0.000000     0.000000
    5    -1.000000   180.000000     0.000000     1.000000     0.000000     0.000000     0.000000     0.000000
    6    -1.000000   180.000000     0.707107     0.707107     0.000000     0.000000     0.000000     0.000000
    7    -1.000000   180.000000     1.000000     0.000000     0.000000     0.000000     0.000000     0.000000
    8    -1.000000   180.000000     0.707107    -0.707107     0.000000     0.000000     0.000000     0.000000
 
 Subroutine IBZKPT returns following result:
 ===========================================
 
 Found      1 irreducible k-points:
 
 Following reciprocal coordinates:
            Coordinates               Weight
  0.250000  0.250000  0.000000      4.000000
 
 Following cartesian coordinates:
            Coordinates               Weight
  0.044326  0.044326  0.000000      4.000000
 


--------------------------------------------------------------------------------------------------------




 Dimension of arrays:
   k-points           NKPTS =      1   k-points in BZ     NKDIM =      1   number of bands    NBANDS=     63
   number of dos      NEDOS =    301   number of ions     NIONS =     12
   non local maximal  LDIM  =      6   non local SUM 2l+1 LMDIM =     18
   total plane-waves  NPLWV =  54880
   max r-space proj   IRMAX =      1   max aug-charges    IRDMAX=   4296
   dimension x,y,z NGX =    28 NGY =   28 NGZ =   70
   dimension x,y,z NGXF=    56 NGYF=   56 NGZF=  140
   support grid    NGXF=    56 NGYF=   56 NGZF=  140
   ions per type =              12
 NGX,Y,Z   is equivalent  to a cutoff of   8.25,  8.25,  7.76 a.u.
 NGXF,Y,Z  is equivalent  to a cutoff of  16.51, 16.51, 15.52 a.u.


 I would recommend the setting:
   dimension x,y,z NGX =    26 NGY =   26 NGZ =   69
 SYSTEM =  Crystal                                 
 POSCAR =  header                                  

 Startparameter for this run:
   NWRITE =      2    write-flag & timer
   PREC   = normal    normal or accurate (medium, high low for compatibility)
   ISTART =      0    job   : 0-new  1-cont  2-samecut
   ICHARG =      2    charge: 1-file 2-atom 10-const
   ISPIN  =      2    spin polarized calculation?
   LNONCOLLINEAR =      F non collinear calculations
   LSORBIT =      F    spin-orbit coupling
   INIWAV =      1    electr: 0-lowe 1-rand  2-diag
   LASPH  =      F    aspherical Exc in radial PAW
   METAGGA=      F    non-selfconsistent MetaGGA calc.

 Electronic Relaxation 1
   ENCUT  =  350.0 eV  25.72 Ry    5.07 a.u.   8.60  8.60 22.88*2*pi/ulx,y,z
   ENINI  =  350.0     initial cutoff
   ENAUG  =  511.4 eV  augmentation charge cutoff
   NELM   =     60;   NELMIN=  4; NELMDL=-10     # of ELM steps 
   EDIFF  = 0.1E-03   stopping-criterion for ELM
   LREAL  =      F    real-space projection
   NLSPLINE    = F    spline interpolate recip. space projectors
   LCOMPAT=      F    compatible to vasp.4.4
   GGA_COMPAT  = T    GGA compatible to vasp.4.4-vasp.4.6
   LMAXPAW     = -100 max onsite density
   LMAXMIX     =    2 max onsite mixed and CHGCAR
   VOSKOWN=      0    Vosko Wilk Nusair interpolation
   ROPT   =    0.00000
 Ionic relaxation
   EDIFFG = -.1E-01   stopping-criterion for IOM
   NSW    =    300    number of steps for IOM
   NBLOCK =      1;   KBLOCK =    300    inner block; outer block 
   IBRION =      2    ionic relax: 0-MD 1-quasi-New 2-CG
   NFREE  =      1    steps in history (QN), initial steepest desc. (CG)
   ISIF   =      2    stress and relaxation
   IWAVPR =     11    prediction:  0-non 1-charg 2-wave 3-comb
   ISYM   =      2    0-nonsym 1-usesym 2-fastsym
   LCORR  =      T    Harris-Foulkes like correction to forces

   POTIM  = 0.5000    time-step for ionic-motion
   TEIN   =    0.0    initial temperature
   TEBEG  =    0.0;   TEEND  =   0.0 temperature during run
   SMASS  =  -3.00    Nose mass-parameter (am)
   estimated Nose-frequenzy (Omega)   =  0.10E-29 period in steps =****** mass=  -0.727E-27a.u.
   SCALEE = 1.0000    scale energy and forces
   NPACO  =    256;   APACO  = 16.0  distance and # of slots for P.C.
   PSTRESS=    0.0 pullay stress

  Mass of Ions in am
   POMASS =  55.85
  Ionic Valenz
   ZVAL   =   8.00
  Atomic Wigner-Seitz radii
   RWIGS  =  -1.00
  virtual crystal weights 
   VCA    =   1.00
   NELECT =      96.0000    total number of electrons
   NUPDOWN=      -1.0000    fix difference up-down

 DOS related values:
   EMIN   =  10.00;   EMAX   =-10.00  energy-range for DOS
   EFERMI =   0.00
   ISMEAR =     2;   SIGMA  =   0.10  broadening in eV -4-tet -1-fermi 0-gaus

 Electronic relaxation 2 (details)
   IALGO  =     68    algorithm
   LDIAG  =      T    sub-space diagonalisation (order eigenvalues)
   LSUBROT=      T    optimize rotation matrix (better conditioning)
   TURBO    =      0    0=normal 1=particle mesh
   IRESTART =      0    0=no restart 2=restart with 2 vectors
   NREBOOT  =      0    no. of reboots
   NMIN     =      0    reboot dimension
   EREF     =   0.00    reference energy to select bands
   IMIX   =      4    mixing-type and parameters
     AMIX     =   0.40;   BMIX     =  1.00
     AMIX_MAG =   1.60;   BMIX_MAG =  1.00
     AMIN     =   0.10
     WC   =   100.;   INIMIX=   1;  MIXPRE=   1;  MAXMIX= -45

 Intra band minimization:
   WEIMIN = 0.0010     energy-eigenvalue tresh-hold
   EBREAK =  0.40E-06  absolut break condition
   DEPER  =   0.30     relativ break condition  

   TIME   =   0.40     timestep for ELM

  volume/ion in A,a.u.               =      39.76       268.33
  Fermi-wavevector in a.u.,A,eV,Ry     =   0.959287  1.812790 12.520522  0.920232
  Thomas-Fermi vector in A             =   2.088470
 
 Write flags
   LWAVE  =      F    write WAVECAR
   LCHARG =      F    write CHGCAR
   LVTOT  =      F    write LOCPOT, total local potential
   LVHAR  =      F    write LOCPOT, Hartree potential only
   LELF   =      F    write electronic localiz. function (ELF)
   LORBIT =      0    0 simple, 1 ext, 2 COOP (PROOUT)


 Dipole corrections
   LMONO  =      F    monopole corrections only (constant potential shift)
   LDIPOL =      F    correct potential (dipole corrections)
   IDIPOL =      0    1-x, 2-y, 3-z, 4-all directions 
   EPSILON=  1.0000000 bulk dielectric constant

 Exchange correlation treatment:
   GGA     =    --    GGA type
   LEXCH   =     8    internal setting for exchange type
   VOSKOWN=      0    Vosko Wilk Nusair interpolation
   LHFCALC =     F    Hartree Fock is set to
   LHFONE  =     F    Hartree Fock one center treatment
   AEXX    =    0.0000 exact exchange contribution

 Linear response parameters
   LEPSILON=     F    determine dielectric tensor
   LRPA    =     F    only Hartree local field effects (RPA)
   LNABLA  =     F    use nabla operator in PAW spheres
   LVEL    =     F    velocity operator in full k-point grid
   LINTERFAST=   F  fast interpolation
   KINTER  =     0    interpolate to denser k-point grid
   CSHIFT  =0.1000    complex shift for real part using Kramers Kronig
   OMEGAMAX=  -1.0    maximum frequency
   DEG_THRESHOLD= 0.2000000E-02 threshold for treating states as degnerate
   RTIME   =    0.100 relaxation time in fs

 Orbital magnetization related:
   ORBITALMAG=     F  switch on orbital magnetization
   LCHIMAG   =     F  perturbation theory with respect to B field
   DQ        =  0.001000  dq finite difference perturbation B field



--------------------------------------------------------------------------------------------------------


 conjugate gradient relaxation of ions
   using selective dynamics as specified on POSCAR
   WARNING: If single coordinates had been selected the selection of coordinates
            is made according to the corresponding   d i r e c t   coordinates!
            Don't support selection of single cartesian coordinates -- sorry ...
  !
 charge density and potential will be updated during run
 spin polarized calculation
 RMM-DIIS sequential band-by-band and
  variant of blocked Davidson during initial phase
 perform sub-space diagonalisation
    before iterative eigenvector-optimisation
 modified Broyden-mixing scheme, WC =      100.0
 initial mixing is a Kerker type mixing with AMIX =  0.4000 and BMIX =      1.0000
 Hartree-type preconditioning will be used
 using additional bands           15
 reciprocal scheme for non local part
 use partial core corrections
 calculate Harris-corrections to forces 
   (improved forces if not selfconsistent)
 use gradient corrections 
 use of overlap-Matrix (Vanderbilt PP)
 Methfessel and Paxton  Order N= 2 SIGMA  =   0.10


--------------------------------------------------------------------------------------------------------


  energy-cutoff  :      350.00
  volume of cell :      477.14
      direct lattice vectors                 reciprocal lattice vectors
     5.640000000  0.000000000  0.000000000     0.177304965  0.000000000  0.000000000
     0.000000000  5.640000000  0.000000000     0.000000000  0.177304965  0.000000000
     0.000000000  0.000000000 15.000000000     0.000000000  0.000000000  0.066666667

  length of vectors
     5.640000000  5.640000000 15.000000000     0.177304965  0.177304965  0.066666667


 
 k-points in units of 2pi/SCALE and weight: K-Points                                
   0.04432624  0.04432624  0.00000000       1.000
 
 k-points in reciprocal lattice and weights: K-Points                                
   0.25000000  0.25000000  0.00000000       1.000
 
 position of ions in fractional coordinates (direct lattice) 
   0.00000000  0.00000000  0.00000000
   0.50000000  0.00000000  0.00000000
   0.00000000  0.50000000  0.00000000
   0.50000000  0.50000000  0.00000000
   0.25000000  0.25000000  0.09400000
   0.75000000  0.25000000  0.09400000
   0.25000000  0.75000000  0.09400000
   0.75000000  0.75000000  0.09400000
   0.00000000  0.00000000  0.18800000
   0.50000000  0.00000000  0.18800000
   0.00000000  0.50000000  0.18800000
   0.50000000  0.50000000  0.18800000
 
 position of ions in cartesian coordinates  (Angst):
   0.00000000  0.00000000  0.00000000
   2.82000000  0.00000000  0.00000000
   0.00000000  2.82000000  0.00000000
   2.82000000  2.82000000  0.00000000
   1.41000000  1.41000000  1.41000000
   4.23000000  1.41000000  1.41000000
   1.41000000  4.23000000  1.41000000
   4.23000000  4.23000000  1.41000000
   0.00000000  0.00000000  2.82000000
   2.82000000  0.00000000  2.82000000
   0.00000000  2.82000000  2.82000000
   2.82000000  2.82000000  2.82000000
 


--------------------------------------------------------------------------------------------------------


 k-point  1 :   0.2500 0.2500 0.0000  plane waves:    7094

 maximum and minimum number of plane-waves per node :      7094     7094

 maximum number of plane-waves:      7094
 maximum index in each direction: 
   IXMAX=    8   IYMAX=    8   IZMAX=   22
   IXMIN=   -8   IYMIN=   -8   IZMIN=  -22

 WARNING: aliasing errors must be expected set NGX to  34 to avoid them
 WARNING: aliasing errors must be expected set NGY to  34 to avoid them
 WARNING: aliasing errors must be expected set NGZ to  90 to avoid them
 aliasing errors are usually negligible using standard VASP settings
 and one can safely disregard these warnings

 serial   3D FFT for wavefunctions
 parallel 3D FFT for charge:
    minimum data exchange during FFTs selected (reduces bandwidth)


 total amount of memory used by VASP on root node    99017. kBytes
========================================================================

   base      :      30000. kBytes
   nonl-proj :       2383. kBytes
   fftplans  :      15148. kBytes
   grid      :      36377. kBytes
   one-center:        373. kBytes
   wavefun   :      14736. kBytes
 
 Broyden mixing: mesh for mixing (old mesh)
   NGX = 17   NGY = 17   NGZ = 45
  (NGX  = 56   NGY  = 56   NGZ  =140)
  gives a total of  13005 points

 initial charge density was supplied:
 charge density of overlapping atoms calculated
 number of electron      96.0000000 magnetization      12.0000000
 keeping initial charge density in first step


--------------------------------------------------------------------------------------------------------


 Maximum index for augmentation-charges         3963 (set IRDMAX)


--------------------------------------------------------------------------------------------------------


 First call to EWALD:  gamma=   0.227
 Maximum number of real-space cells 4x 4x 2
 Maximum number of reciprocal cells 2x 2x 5

 FEWALD executed in parallel
    FEWALD:  cpu time    0.00: real time    0.00


----------------------------------------- Iteration    1(   1)  ---------------------------------------


    POTLOK:  cpu time    0.78: real time    0.78
    SETDIJ:  cpu time    0.12: real time    0.12
     EDDAV:  cpu time    4.05: real time    4.05
       DOS:  cpu time    0.00: real time    0.00
    --------------------------------------------
      LOOP:  cpu time    4.95: real time    4.95

 eigenvalue-minimisations  :   252
 total energy-change (2. order) : 0.6405099E+03  (-0.2987639E+04)
 number of electron      96.0000000 magnetization      12.0000000
 augmentation part       96.0000000 magnetization      12.0000000

 Free energy of the ion-electron system (eV)
  ---------------------------------------------------
  alpha Z        PSCENC =       208.58239324
  Ewald energy   TEWEN  =     10655.31659560
  -1/2 Hartree   DENC   =    -17716.81105301
  -exchange  EXHF       =         0.00000000
  -V(xc)+E(xc)   XCENC  =        40.56673374
  PAW double counting   =      6656.72073468    -6749.17102895
  entropy T*S    EENTRO =         0.00025496
  eigenvalues    EBANDS =       413.76730090
  atomic energy  EATOM  =      7131.53793727
  ---------------------------------------------------
  free energy    TOTEN  =       640.50986842 eV

  energy without entropy =      640.50961346  energy(sigma->0) =      640.50980468


--------------------------------------------------------------------------------------------------------




----------------------------------------- Iteration    1(   2)  ---------------------------------------


     EDDAV:  cpu time    3.99: real time    4.00
       DOS:  cpu time    0.00: real time    0.00
    --------------------------------------------
      LOOP:  cpu time    3.99: real time    4.00

 eigenvalue-minimisations  :   252
 total energy-change (2. order) :-0.6809485E+03  (-0.6493175E+03)
 number of electron      96.0000000 magnetization      12.0000000
 augmentation part       96.0000000 magnetization      12.0000000

 Free energy of the ion-electron system (eV)
  ---------------------------------------------------
  alpha Z        PSCENC =       208.58239324
  Ewald energy   TEWEN  =     10655.31659560
  -1/2 Hartree   DENC   =    -17716.81105301
  -exchange  EXHF       =         0.00000000
  -V(xc)+E(xc)   XCENC  =        40.56673374
  PAW double counting   =      6656.72073468    -6749.17102895
  entropy T*S    EENTRO =         0.01697194
  eigenvalues    EBANDS =      -267.19788918
  atomic energy  EATOM  =      7131.53793727
  ---------------------------------------------------
  free energy    TOTEN  =       -40.43860468 eV

  energy without entropy =      -40.45557662  energy(sigma->0) =      -40.44284766


--------------------------------------------------------------------------------------------------------




----------------------------------------- Iteration    1(   3)  ---------------------------------------


     EDDAV:  cpu time    4.98: real time    4.98
       DOS:  cpu time    0.00: real time    0.00
    --------------------------------------------
      LOOP:  cpu time    4.98: real time    4.98

 eigenvalue-minimisations  :   336
 total energy-change (2. order) :-0.4924986E+02  (-0.4346787E+02)
 number of electron      96.0000000 magnetization      12.0000000
 augmentation part       96.0000000 magnetization      12.0000000

 Free energy of the ion-electron system (eV)
  ---------------------------------------------------
  alpha Z        PSCENC =       208.58239324
  Ewald energy   TEWEN  =     10655.31659560
  -1/2 Hartree   DENC   =    -17716.81105301
  -exchange  EXHF       =         0.00000000
  -V(xc)+E(xc)   XCENC  =        40.56673374
  PAW double counting   =      6656.72073468    -6749.17102895
  entropy T*S    EENTRO =         0.02341291
  eigenvalues    EBANDS =      -316.45418936
  atomic energy  EATOM  =      7131.53793727
  ---------------------------------------------------
  free energy    TOTEN  =       -89.68846389 eV

  energy without entropy =      -89.71187680  energy(sigma->0) =      -89.69431712


--------------------------------------------------------------------------------------------------------




----------------------------------------- Iteration    1(   4)  ---------------------------------------


     EDDAV:  cpu time    6.23: real time    6.24
       DOS:  cpu time    0.00: real time    0.00
    --------------------------------------------
      LOOP:  cpu time    6.24: real time    6.24

 eigenvalue-minimisations  :   440
 total energy-change (2. order) :-0.6960259E+01  (-0.6330743E+01)
 number of electron      96.0000000 magnetization      12.0000000
 augmentation part       96.0000000 magnetization      12.0000000

 Free energy of the ion-electron system (eV)
  ---------------------------------------------------
  alpha Z        PSCENC =       208.58239324
  Ewald energy   TEWEN  =     10655.31659560
  -1/2 Hartree   DENC   =    -17716.81105301
  -exchange  EXHF       =         0.00000000
  -V(xc)+E(xc)   XCENC  =        40.56673374
  PAW double counting   =      6656.72073468    -6749.17102895
  entropy T*S    EENTRO =         0.01911044
  eigenvalues    EBANDS =      -323.41014541
  atomic energy  EATOM  =      7131.53793727
  ---------------------------------------------------
  free energy    TOTEN  =       -96.64872241 eV

  energy without entropy =      -96.66783285  energy(sigma->0) =      -96.65350002


--------------------------------------------------------------------------------------------------------




----------------------------------------- Iteration    1(   5)  ---------------------------------------


     EDDAV:  cpu time    5.50: real time    5.51
       DOS:  cpu time    0.00: real time    0.00
    --------------------------------------------
      LOOP:  cpu time    5.50: real time    5.51

 eigenvalue-minimisations  :   376
 total energy-change (2. order) :-0.5950270E+00  (-0.5611273E+00)
 number of electron      96.0000000 magnetization      12.0000000
 augmentation part       96.0000000 magnetization      12.0000000

 Free energy of the ion-electron system (eV)
  ---------------------------------------------------
  alpha Z        PSCENC =       208.58239324
  Ewald energy   TEWEN  =     10655.31659560
  -1/2 Hartree   DENC   =    -17716.81105301
  -exchange  EXHF       =         0.00000000
  -V(xc)+E(xc)   XCENC  =        40.56673374
  PAW double counting   =      6656.72073468    -6749.17102895
  entropy T*S    EENTRO =        -0.01017852
  eigenvalues    EBANDS =      -323.97588346
  atomic energy  EATOM  =      7131.53793727
  ---------------------------------------------------
  free energy    TOTEN  =       -97.24374941 eV

  energy without entropy =      -97.23357090  energy(sigma->0) =      -97.24120479


--------------------------------------------------------------------------------------------------------




----------------------------------------- Iteration    1(   6)  ---------------------------------------


     EDDAV:  cpu time    6.53: real time    6.53
       DOS:  cpu time    0.00: real time    0.00
    --------------------------------------------
      LOOP:  cpu time    6.53: real time    6.54

 eigenvalue-minimisations  :   464
 total energy-change (2. order) :-0.9944518E-01  (-0.9497953E-01)
 number of electron      96.0000000 magnetization      12.0000000
 augmentation part       96.0000000 magnetization      12.0000000

 Free energy of the ion-electron system (eV)
  ---------------------------------------------------
  alpha Z        PSCENC =       208.58239324
  Ewald energy   TEWEN  =     10655.31659560
  -1/2 Hartree   DENC   =    -17716.81105301
  -exchange  EXHF       =         0.00000000
  -V(xc)+E(xc)   XCENC  =        40.56673374
  PAW double counting   =      6656.72073468    -6749.17102895
  entropy T*S    EENTRO =        -0.01426988
  eigenvalues    EBANDS =      -324.07123728
  atomic energy  EATOM  =      7131.53793727
  ---------------------------------------------------
  free energy    TOTEN  =       -97.34319459 eV

  energy without entropy =      -97.32892471  energy(sigma->0) =      -97.33962712


--------------------------------------------------------------------------------------------------------




----------------------------------------- Iteration    1(   7)  ---------------------------------------


     EDDAV:  cpu time    5.64: real time    5.65
       DOS:  cpu time    0.00: real time    0.00
    --------------------------------------------
      LOOP:  cpu time    5.64: real time    5.65

 eigenvalue-minimisations  :   392
 total energy-change (2. order) :-0.2465716E-01  (-0.2386653E-01)
 number of electron      96.0000000 magnetization      12.0000000
 augmentation part       96.0000000 magnetization      12.0000000

 Free energy of the ion-electron system (eV)
  ---------------------------------------------------
  alpha Z        PSCENC =       208.58239324
  Ewald energy   TEWEN  =     10655.31659560
  -1/2 Hartree   DENC   =    -17716.81105301
  -exchange  EXHF       =         0.00000000
  -V(xc)+E(xc)   XCENC  =        40.56673374
  PAW double counting   =      6656.72073468    -6749.17102895
  entropy T*S    EENTRO =        -0.01474090
  eigenvalues    EBANDS =      -324.09542341
  atomic energy  EATOM  =      7131.53793727
  ---------------------------------------------------
  free energy    TOTEN  =       -97.36785175 eV

  energy without entropy =      -97.35311085  energy(sigma->0) =      -97.36416653


--------------------------------------------------------------------------------------------------------




----------------------------------------- Iteration    1(   8)  ---------------------------------------


     EDDAV:  cpu time    4.78: real time    4.79
       DOS:  cpu time    0.00: real time    0.00
    --------------------------------------------
      LOOP:  cpu time    4.78: real time    4.79

 eigenvalue-minimisations  :   320
 total energy-change (2. order) :-0.8130119E-02  (-0.7923618E-02)
 number of electron      96.0000000 magnetization      12.0000000
 augmentation part       96.0000000 magnetization      12.0000000

 Free energy of the ion-electron system (eV)
  ---------------------------------------------------
  alpha Z        PSCENC =       208.58239324
  Ewald energy   TEWEN  =     10655.31659560
  -1/2 Hartree   DENC   =    -17716.81105301
  -exchange  EXHF       =         0.00000000
  -V(xc)+E(xc)   XCENC  =        40.56673374
  PAW double counting   =      6656.72073468    -6749.17102895
  entropy T*S    EENTRO =        -0.01502658
  eigenvalues    EBANDS =      -324.10326785
  atomic energy  EATOM  =      7131.53793727
  ---------------------------------------------------
  free energy    TOTEN  =       -97.37598187 eV

  energy without entropy =      -97.36095529  energy(sigma->0) =      -97.37222523


--------------------------------------------------------------------------------------------------------




----------------------------------------- Iteration    1(   9)  ---------------------------------------


     EDDAV:  cpu time    4.27: real time    4.28
       DOS:  cpu time    0.00: real time    0.00
    --------------------------------------------
      LOOP:  cpu time    4.27: real time    4.28

 eigenvalue-minimisations  :   272
 total energy-change (2. order) :-0.2400703E-02  (-0.2377548E-02)
 number of electron      96.0000000 magnetization      12.0000000
 augmentation part       96.0000000 magnetization      12.0000000

 Free energy of the ion-electron system (eV)
  ---------------------------------------------------
  alpha Z        PSCENC =       208.58239324
  Ewald energy   TEWEN  =     10655.31659560
  -1/2 Hartree   DENC   =    -17716.81105301
  -exchange  EXHF       =         0.00000000
  -V(xc)+E(xc)   XCENC  =        40.56673374
  PAW double counting   =      6656.72073468    -6749.17102895
  entropy T*S    EENTRO =        -0.01517008
  eigenvalues    EBANDS =      -324.10552506
  atomic energy  EATOM  =      7131.53793727
  ---------------------------------------------------
  free energy    TOTEN  =       -97.37838257 eV

  energy without entropy =      -97.36321250  energy(sigma->0) =      -97.37459005


--------------------------------------------------------------------------------------------------------




----------------------------------------- Iteration    1(  10)  ---------------------------------------


     EDDAV:  cpu time    3.93: real time    3.94
       DOS:  cpu time    0.00: real time    0.00
    CHARGE:  cpu time    0.44: real time    0.44
    MIXING:  cpu time    0.02: real time    0.01
    --------------------------------------------
      LOOP:  cpu time    4.38: real time    4.39

 eigenvalue-minimisations  :   240
 total energy-change (2. order) :-0.7688129E-03  (-0.7622956E-03)
 number of electron      96.0000257 magnetization      12.6564422
 augmentation part       43.9795154 magnetization       8.0460719

 Broyden mixing:
  rms(total) = 0.33814E+01    rms(broyden)= 0.33792E+01
  rms(prec ) = 0.37562E+01
  weight for this iteration     100.00

 Free energy of the ion-electron system (eV)
  ---------------------------------------------------
  alpha Z        PSCENC =       208.58239324
  Ewald energy   TEWEN  =     10655.31659560
  -1/2 Hartree   DENC   =    -17716.81105301
  -exchange  EXHF       =         0.00000000
  -V(xc)+E(xc)   XCENC  =        40.56673374
  PAW double counting   =      6656.72073468    -6749.17102895
  entropy T*S    EENTRO =        -0.01524908
  eigenvalues    EBANDS =      -324.10621487
  atomic energy  EATOM  =      7131.53793727
  ---------------------------------------------------
  free energy    TOTEN  =       -97.37915139 eV

  energy without entropy =      -97.36390231  energy(sigma->0) =      -97.37533912


--------------------------------------------------------------------------------------------------------




----------------------------------------- Iteration    1(  11)  ---------------------------------------


    POTLOK:  cpu time    0.78: real time    0.79
    SETDIJ:  cpu time    0.12: real time    0.12
    EDDIAG:  cpu time    0.78: real time    0.78
  RMM-DIIS:  cpu time    3.10: real time    3.10
    ORTHCH:  cpu time    0.08: real time    0.08
       DOS:  cpu time    0.00: real time    0.00
    CHARGE:  cpu time    0.44: real time    0.44
    MIXING:  cpu time    0.02: real time    0.02
    --------------------------------------------
      LOOP:  cpu time    5.32: real time    5.32

 eigenvalue-minimisations  :   253
 total energy-change (2. order) :-0.1158041E+02  (-0.2338616E+02)
 number of electron      96.0000287 magnetization      12.4167879
 augmentation part       52.5272751 magnetization      10.8624022

 Broyden mixing:
  rms(total) = 0.68000E+01    rms(broyden)= 0.67997E+01
  rms(prec ) = 0.79602E+01
  weight for this iteration     100.00

 eigenvalues of (default mixing * dielectric matrix)
  average eigenvalue GAMMA=   0.2740
  0.2740

 Free energy of the ion-electron system (eV)
  ---------------------------------------------------
  alpha Z        PSCENC =       208.58239324
  Ewald energy   TEWEN  =     10655.31659560
  -1/2 Hartree   DENC   =    -17567.16065639
  -exchange  EXHF       =         0.00000000
  -V(xc)+E(xc)   XCENC  =        34.22801229
  PAW double counting   =      6995.21985333    -7060.96091709
  entropy T*S    EENTRO =        -0.02545310
  eigenvalues    EBANDS =      -505.69732467
  atomic energy  EATOM  =      7131.53793727
  ---------------------------------------------------
  free energy    TOTEN  =      -108.95955952 eV

  energy without entropy =     -108.93410642  energy(sigma->0) =     -108.95319625


--------------------------------------------------------------------------------------------------------




----------------------------------------- Iteration    1(  12)  ---------------------------------------


    POTLOK:  cpu time    0.78: real time    0.78
    SETDIJ:  cpu time    0.12: real time    0.12
    EDDIAG:  cpu time    0.78: real time    0.78
  RMM-DIIS:  cpu time    3.10: real time    3.10
    ORTHCH:  cpu time    0.08: real time    0.08
       DOS:  cpu time    0.00: real time    0.00
    CHARGE:  cpu time    0.43: real time    0.44
    MIXING:  cpu time    0.02: real time    0.02
    --------------------------------------------
      LOOP:  cpu time    5.31: real time    5.31

 eigenvalue-minimisations  :   252
 total energy-change (2. order) : 0.8027260E+01  (-0.1486276E+02)
 number of electron      96.0000351 magnetization      13.0871899
 augmentation part       52.4011610 magnetization       6.9378278

 Broyden mixing:
  rms(total) = 0.53511E+01    rms(broyden)= 0.53498E+01
  rms(prec ) = 0.60597E+01
  weight for this iteration     100.00

 eigenvalues of (default mixing * dielectric matrix)
  average eigenvalue GAMMA=   0.3203
  0.5274  0.1132

 Free energy of the ion-electron system (eV)
  ---------------------------------------------------
  alpha Z        PSCENC =       208.58239324
  Ewald energy   TEWEN  =     10655.31659560
  -1/2 Hartree   DENC   =    -17565.36894128
  -exchange  EXHF       =         0.00000000
  -V(xc)+E(xc)   XCENC  =        33.79692698
  PAW double counting   =      7130.90707355    -7204.11753649
  entropy T*S    EENTRO =        -0.02803898
  eigenvalues    EBANDS =      -491.55870917
  atomic energy  EATOM  =      7131.53793727
  ---------------------------------------------------
  free energy    TOTEN  =      -100.93229929 eV

  energy without entropy =     -100.90426031  energy(sigma->0) =     -100.92528954


--------------------------------------------------------------------------------------------------------




----------------------------------------- Iteration    1(  13)  ---------------------------------------


    POTLOK:  cpu time    0.77: real time    0.77
    SETDIJ:  cpu time    0.12: real time    0.12
    EDDIAG:  cpu time    0.78: real time    0.78
  RMM-DIIS:  cpu time    3.08: real time    3.08
    ORTHCH:  cpu time    0.08: real time    0.08
       DOS:  cpu time    0.00: real time    0.00
    CHARGE:  cpu time    0.42: real time    0.43
    MIXING:  cpu time    0.02: real time    0.02
    --------------------------------------------
      LOOP:  cpu time    5.26: real time    5.27

 eigenvalue-minimisations  :   254
 total energy-change (2. order) : 0.1366148E+02  (-0.1559722E+01)
 number of electron      96.0000304 magnetization      14.5103404
 augmentation part       50.8245742 magnetization       8.0341559

 Broyden mixing:
  rms(total) = 0.29949E+01    rms(broyden)= 0.29943E+01
  rms(prec ) = 0.34265E+01
  weight for this iteration     100.00

 eigenvalues of (default mixing * dielectric matrix)
  average eigenvalue GAMMA=   0.4199
  0.6670  0.4209  0.1717

 Free energy of the ion-electron system (eV)
  ---------------------------------------------------
  alpha Z        PSCENC =       208.58239324
  Ewald energy   TEWEN  =     10655.31659560
  -1/2 Hartree   DENC   =    -17626.14386723
  -exchange  EXHF       =         0.00000000
  -V(xc)+E(xc)   XCENC  =        36.89201847
  PAW double counting   =      7430.61345153    -7519.54224298
  entropy T*S    EENTRO =        -0.02054410
  eigenvalues    EBANDS =      -404.50655898
  atomic energy  EATOM  =      7131.53793727
  ---------------------------------------------------
  free energy    TOTEN  =       -87.27081719 eV

  energy without entropy =      -87.25027309  energy(sigma->0) =      -87.26568116


--------------------------------------------------------------------------------------------------------




----------------------------------------- Iteration    1(  14)  ---------------------------------------


    POTLOK:  cpu time    0.78: real time    0.78
    SETDIJ:  cpu time    0.12: real time    0.12
    EDDIAG:  cpu time    0.77: real time    0.77
  RMM-DIIS:  cpu time    3.17: real time    3.17
    ORTHCH:  cpu time    0.08: real time    0.08
       DOS:  cpu time    0.00: real time    0.00
    CHARGE:  cpu time    0.43: real time    0.43
    MIXING:  cpu time    0.02: real time    0.02
    --------------------------------------------
      LOOP:  cpu time    5.37: real time    5.37

 eigenvalue-minimisations  :   263
 total energy-change (2. order) :-0.1023216E+01  (-0.1818693E+01)
 number of electron      96.0000275 magnetization      14.9534449
 augmentation part       50.4044427 magnetization       9.9240584

 Broyden mixing:
  rms(total) = 0.34391E+01    rms(broyden)= 0.34382E+01
  rms(prec ) = 0.45872E+01
  weight for this iteration     100.00

 eigenvalues of (default mixing * dielectric matrix)
  average eigenvalue GAMMA=   0.4001
  0.7541  0.1442  0.3511  0.3511

 Free energy of the ion-electron system (eV)
  ---------------------------------------------------
  alpha Z        PSCENC =       208.58239324
  Ewald energy   TEWEN  =     10655.31659560
  -1/2 Hartree   DENC   =    -17655.88323623
  -exchange  EXHF       =         0.00000000
  -V(xc)+E(xc)   XCENC  =        42.00649747
  PAW double counting   =      7589.29126893    -7684.31215108
  entropy T*S    EENTRO =        -0.00371151
  eigenvalues    EBANDS =      -374.82962640
  atomic energy  EATOM  =      7131.53793727
  ---------------------------------------------------
  free energy    TOTEN  =       -88.29403272 eV

  energy without entropy =      -88.29032121  energy(sigma->0) =      -88.29310484


--------------------------------------------------------------------------------------------------------




----------------------------------------- Iteration    1(  15)  ---------------------------------------


    POTLOK:  cpu time    0.78: real time    0.78
    SETDIJ:  cpu time    0.12: real time    0.12
    EDDIAG:  cpu time    0.77: real time    0.77
  RMM-DIIS:  cpu time    3.20: real time    3.21
    ORTHCH:  cpu time    0.08: real time    0.08
       DOS:  cpu time    0.00: real time    0.00
    CHARGE:  cpu time    0.43: real time    0.43
    MIXING:  cpu time    0.02: real time    0.02
    --------------------------------------------
      LOOP:  cpu time    5.40: real time    5.41

 eigenvalue-minimisations  :   262
 total energy-change (2. order) : 0.4949020E+01  (-0.1098192E+01)
 number of electron      96.0000290 magnetization      17.3535133
 augmentation part       50.3880866 magnetization      11.8645787

 Broyden mixing:
  rms(total) = 0.21111E+01    rms(broyden)= 0.21093E+01
  rms(prec ) = 0.24645E+01
  weight for this iteration     100.00

 eigenvalues of (default mixing * dielectric matrix)
  average eigenvalue GAMMA=   0.5493
  1.0381  0.7326  0.7326  0.1538  0.0894

 Free energy of the ion-electron system (eV)
  ---------------------------------------------------
  alpha Z        PSCENC =       208.58239324
  Ewald energy   TEWEN  =     10655.31659560
  -1/2 Hartree   DENC   =    -17663.79178299
  -exchange  EXHF       =         0.00000000
  -V(xc)+E(xc)   XCENC  =        42.81163593
  PAW double counting   =      7639.38855483    -7736.04015288
  entropy T*S    EENTRO =         0.00138773
  eigenvalues    EBANDS =      -361.15158134
  atomic energy  EATOM  =      7131.53793727
  ---------------------------------------------------
  free energy    TOTEN  =       -83.34501261 eV

  energy without entropy =      -83.34640034  energy(sigma->0) =      -83.34535954


--------------------------------------------------------------------------------------------------------




----------------------------------------- Iteration    1(  16)  ---------------------------------------


    POTLOK:  cpu time    0.77: real time    0.78
    SETDIJ:  cpu time    0.12: real time    0.12
    EDDIAG:  cpu time    0.78: real time    0.78
  RMM-DIIS:  cpu time    3.47: real time    3.47
    ORTHCH:  cpu time    0.08: real time    0.08
       DOS:  cpu time    0.00: real time    0.00
    CHARGE:  cpu time    0.43: real time    0.43
    MIXING:  cpu time    0.02: real time    0.02
    --------------------------------------------
      LOOP:  cpu time    5.68: real time    5.69

 eigenvalue-minimisations  :   286
 total energy-change (2. order) : 0.3896294E+01  (-0.1378344E+01)
 number of electron      96.0000291 magnetization      19.8601962
 augmentation part       50.3943645 magnetization      14.6464889

 Broyden mixing:
  rms(total) = 0.19893E+01    rms(broyden)= 0.19892E+01
  rms(prec ) = 0.25134E+01
  weight for this iteration     100.00

 eigenvalues of (default mixing * dielectric matrix)
  average eigenvalue GAMMA=   0.6495
  1.3956  0.8551  0.8551  0.5347  0.1546  0.1018

 Free energy of the ion-electron system (eV)
  ---------------------------------------------------
  alpha Z        PSCENC =       208.58239324
  Ewald energy   TEWEN  =     10655.31659560
  -1/2 Hartree   DENC   =    -17689.84237330
  -exchange  EXHF       =         0.00000000
  -V(xc)+E(xc)   XCENC  =        49.31197351
  PAW double counting   =      7836.19215797    -7938.06726696
  entropy T*S    EENTRO =         0.00712544
  eigenvalues    EBANDS =      -332.48726172
  atomic energy  EATOM  =      7131.53793727
  ---------------------------------------------------
  free energy    TOTEN  =       -79.44871895 eV

  energy without entropy =      -79.45584439  energy(sigma->0) =      -79.45050031


--------------------------------------------------------------------------------------------------------




----------------------------------------- Iteration    1(  17)  ---------------------------------------


    POTLOK:  cpu time    0.76: real time    0.76
    SETDIJ:  cpu time    0.12: real time    0.12
    EDDIAG:  cpu time    0.78: real time    0.78
  RMM-DIIS:  cpu time    3.35: real time    3.36
    ORTHCH:  cpu time    0.08: real time    0.08
       DOS:  cpu time    0.00: real time    0.00
    CHARGE:  cpu time    0.44: real time    0.44
    MIXING:  cpu time    0.02: real time    0.02
    --------------------------------------------
      LOOP:  cpu time    5.54: real time    5.55

 eigenvalue-minimisations  :   275
 total energy-change (2. order) : 0.4269752E+01  (-0.7864027E+00)
 number of electron      96.0000284 magnetization      22.2335713
 augmentation part       50.3398949 magnetization      17.6506560

 Broyden mixing:
  rms(total) = 0.10872E+01    rms(broyden)= 0.10871E+01
  rms(prec ) = 0.13520E+01
  weight for this iteration     100.00

 eigenvalues of (default mixing * dielectric matrix)
  average eigenvalue GAMMA=   0.7604
  2.2014  0.7703  0.7703  0.6624  0.6624  0.1546  0.1014

 Free energy of the ion-electron system (eV)
  ---------------------------------------------------
  alpha Z        PSCENC =       208.58239324
  Ewald energy   TEWEN  =     10655.31659560
  -1/2 Hartree   DENC   =    -17711.12956926
  -exchange  EXHF       =         0.00000000
  -V(xc)+E(xc)   XCENC  =        54.04327270
  PAW double counting   =      7996.35191068    -8102.48487459
  entropy T*S    EENTRO =        -0.00503761
  eigenvalues    EBANDS =      -307.39159546
  atomic energy  EATOM  =      7131.53793727
  ---------------------------------------------------
  free energy    TOTEN  =       -75.17896743 eV

  energy without entropy =      -75.17392982  energy(sigma->0) =      -75.17770803


--------------------------------------------------------------------------------------------------------




----------------------------------------- Iteration    1(  18)  ---------------------------------------


    POTLOK:  cpu time    0.78: real time    0.78
    SETDIJ:  cpu time    0.12: real time    0.12
    EDDIAG:  cpu time    0.78: real time    0.77
  RMM-DIIS:  cpu time    3.50: real time    3.50
    ORTHCH:  cpu time    0.08: real time    0.08
       DOS:  cpu time    0.00: real time    0.00
    CHARGE:  cpu time    0.43: real time    0.43
    MIXING:  cpu time    0.02: real time    0.02
    --------------------------------------------
      LOOP:  cpu time    5.70: real time    5.70

 eigenvalue-minimisations  :   290
 total energy-change (2. order) : 0.3765826E+00  (-0.5281746E+00)
 number of electron      96.0000277 magnetization      23.5277519
 augmentation part       50.4124677 magnetization      19.4579851

 Broyden mixing:
  rms(total) = 0.96775E+00    rms(broyden)= 0.96750E+00
  rms(prec ) = 0.11806E+01
  weight for this iteration     100.00

 eigenvalues of (default mixing * dielectric matrix)
  average eigenvalue GAMMA=   0.8015
  2.3054  0.9051  0.9051  0.8029  0.6188  0.6188  0.1546  0.1013

 Free energy of the ion-electron system (eV)
  ---------------------------------------------------
  alpha Z        PSCENC =       208.58239324
  Ewald energy   TEWEN  =     10655.31659560
  -1/2 Hartree   DENC   =    -17729.51814829
  -exchange  EXHF       =         0.00000000
  -V(xc)+E(xc)   XCENC  =        56.26767554
  PAW double counting   =      8108.93697813    -8217.24398054
  entropy T*S    EENTRO =         0.01403364
  eigenvalues    EBANDS =      -288.69586940
  atomic energy  EATOM  =      7131.53793727
  ---------------------------------------------------
  free energy    TOTEN  =       -74.80238481 eV

  energy without entropy =      -74.81641845  energy(sigma->0) =      -74.80589322


--------------------------------------------------------------------------------------------------------




----------------------------------------- Iteration    1(  19)  ---------------------------------------


    POTLOK:  cpu time    0.78: real time    0.78
    SETDIJ:  cpu time    0.12: real time    0.12
    EDDIAG:  cpu time    0.77: real time    0.77
  RMM-DIIS:  cpu time    3.50: real time    3.50
    ORTHCH:  cpu time    0.08: real time    0.08
       DOS:  cpu time    0.00: real time    0.00
    CHARGE:  cpu time    0.43: real time    0.43
    MIXING:  cpu time    0.02: real time    0.03
    --------------------------------------------
      LOOP:  cpu time    5.69: real time    5.70

 eigenvalue-minimisations  :   293
 total energy-change (2. order) :-0.2802443E+00  (-0.1633068E+00)
 number of electron      96.0000280 magnetization      25.2377989
 augmentation part       50.4755220 magnetization      21.2669856

 Broyden mixing:
  rms(total) = 0.55982E+00    rms(broyden)= 0.55969E+00
  rms(prec ) = 0.61679E+00
  weight for this iteration     100.00

 eigenvalues of (default mixing * dielectric matrix)
  average eigenvalue GAMMA=   0.8137
  1.7081  1.7081  0.8805  0.8805  0.6674  0.6674  0.5552  0.1546  0.1013

 Free energy of the ion-electron system (eV)
  ---------------------------------------------------
  alpha Z        PSCENC =       208.58239324
  Ewald energy   TEWEN  =     10655.31659560
  -1/2 Hartree   DENC   =    -17740.35339807
  -exchange  EXHF       =         0.00000000
  -V(xc)+E(xc)   XCENC  =        57.11052187
  PAW double counting   =      8150.78748561    -8259.68086402
  entropy T*S    EENTRO =        -0.00833526
  eigenvalues    EBANDS =      -278.37496532
  atomic energy  EATOM  =      7131.53793727
  ---------------------------------------------------
  free energy    TOTEN  =       -75.08262909 eV

  energy without entropy =      -75.07429383  energy(sigma->0) =      -75.08054527


--------------------------------------------------------------------------------------------------------




----------------------------------------- Iteration    1(  20)  ---------------------------------------


    POTLOK:  cpu time    0.78: real time    0.77
    SETDIJ:  cpu time    0.12: real time    0.12
    EDDIAG:  cpu time    0.78: real time    0.78
  RMM-DIIS:  cpu time    3.17: real time    3.17
    ORTHCH:  cpu time    0.08: real time    0.08
       DOS:  cpu time    0.00: real time    0.00
    CHARGE:  cpu time    0.44: real time    0.44
    MIXING:  cpu time    0.03: real time    0.03
    --------------------------------------------
      LOOP:  cpu time    5.38: real time    5.38

 eigenvalue-minimisations  :   260
 total energy-change (2. order) :-0.4313984E+01  (-0.2373123E+00)
 number of electron      96.0000276 magnetization      26.8914562
 augmentation part       50.2952173 magnetization      22.6774735

 Broyden mixing:
  rms(total) = 0.42974E+00    rms(broyden)= 0.42962E+00
  rms(prec ) = 0.54505E+00
  weight for this iteration     100.00

 eigenvalues of (default mixing * dielectric matrix)
  average eigenvalue GAMMA=   0.9647
  2.5928  2.5928  0.8196  0.8196  0.7998  0.6194  0.6194  0.5278  0.1546  0.1013

 Free energy of the ion-electron system (eV)
  ---------------------------------------------------
  alpha Z        PSCENC =       208.58239324
  Ewald energy   TEWEN  =     10655.31659560
  -1/2 Hartree   DENC   =    -17752.83774128
  -exchange  EXHF       =         0.00000000
  -V(xc)+E(xc)   XCENC  =        53.59251236
  PAW double counting   =      8169.18473482    -8277.69088699
  entropy T*S    EENTRO =        -0.01668429
  eigenvalues    EBANDS =      -267.06547347
  atomic energy  EATOM  =      7131.53793727
  ---------------------------------------------------
  free energy    TOTEN  =       -79.39661274 eV

  energy without entropy =      -79.37992845  energy(sigma->0) =      -79.39244167


--------------------------------------------------------------------------------------------------------




----------------------------------------- Iteration    1(  21)  ---------------------------------------


    POTLOK:  cpu time    0.76: real time    0.76
    SETDIJ:  cpu time    0.12: real time    0.12
    EDDIAG:  cpu time    0.77: real time    0.77
  RMM-DIIS:  cpu time    3.14: real time    3.14
    ORTHCH:  cpu time    0.08: real time    0.08
       DOS:  cpu time    0.00: real time    0.00
    CHARGE:  cpu time    0.44: real time    0.43
    MIXING:  cpu time    0.03: real time    0.03
    --------------------------------------------
      LOOP:  cpu time    5.33: real time    5.34

 eigenvalue-minimisations  :   256
 total energy-change (2. order) :-0.3315232E+01  (-0.2891085E+00)
 number of electron      96.0000275 magnetization      26.7967929
 augmentation part       50.2127966 magnetization      22.2744419

 Broyden mixing:
  rms(total) = 0.26048E+00    rms(broyden)= 0.26037E+00
  rms(prec ) = 0.27674E+00
  weight for this iteration     100.00

 eigenvalues of (default mixing * dielectric matrix)
  average eigenvalue GAMMA=   0.9566
  2.7091  2.7091  0.8502  0.8502  0.8739  0.1546  0.1013  0.6089  0.6089  0.5807
  0.4760

 Free energy of the ion-electron system (eV)
  ---------------------------------------------------
  alpha Z        PSCENC =       208.58239324
  Ewald energy   TEWEN  =     10655.31659560
  -1/2 Hartree   DENC   =    -17757.53036571
  -exchange  EXHF       =         0.00000000
  -V(xc)+E(xc)   XCENC  =        51.53693479
  PAW double counting   =      8175.42762620    -8283.19923062
  entropy T*S    EENTRO =         0.00273607
  eigenvalues    EBANDS =      -264.38647163
  atomic energy  EATOM  =      7131.53793727
  ---------------------------------------------------
  free energy    TOTEN  =       -82.71184480 eV

  energy without entropy =      -82.71458086  energy(sigma->0) =      -82.71252881


--------------------------------------------------------------------------------------------------------




----------------------------------------- Iteration    1(  22)  ---------------------------------------


    POTLOK:  cpu time    0.78: real time    0.78
    SETDIJ:  cpu time    0.12: real time    0.12
    EDDIAG:  cpu time    0.78: real time    0.77
  RMM-DIIS:  cpu time    3.28: real time    3.29
    ORTHCH:  cpu time    0.08: real time    0.08
       DOS:  cpu time    0.00: real time    0.00
    CHARGE:  cpu time    0.43: real time    0.44
    MIXING:  cpu time    0.03: real time    0.03
    --------------------------------------------
      LOOP:  cpu time    5.50: real time    5.51

 eigenvalue-minimisations  :   268
 total energy-change (2. order) :-0.1126445E+01  (-0.1433061E+00)
 number of electron      96.0000275 magnetization      26.6604376
 augmentation part       50.1828604 magnetization      21.9323598

 Broyden mixing:
  rms(total) = 0.29106E+00    rms(broyden)= 0.29102E+00
  rms(prec ) = 0.33635E+00
  weight for this iteration     100.00

 eigenvalues of (default mixing * dielectric matrix)
  average eigenvalue GAMMA=   0.9478
  2.7432  2.7432  0.8584  0.8584  0.9168  0.1546  0.1013  0.6573  0.6573  0.5752
  0.5752  0.5325

 Free energy of the ion-electron system (eV)
  ---------------------------------------------------
  alpha Z        PSCENC =       208.58239324
  Ewald energy   TEWEN  =     10655.31659560
  -1/2 Hartree   DENC   =    -17751.88875807
  -exchange  EXHF       =         0.00000000
  -V(xc)+E(xc)   XCENC  =        50.43646483
  PAW double counting   =      8150.71228772    -8257.75632033
  entropy T*S    EENTRO =         0.01343334
  eigenvalues    EBANDS =      -270.79232327
  atomic energy  EATOM  =      7131.53793727
  ---------------------------------------------------
  free energy    TOTEN  =       -83.83828967 eV

  energy without entropy =      -83.85172301  energy(sigma->0) =      -83.84164801


--------------------------------------------------------------------------------------------------------




----------------------------------------- Iteration    1(  23)  ---------------------------------------


    POTLOK:  cpu time    0.77: real time    0.77
    SETDIJ:  cpu time    0.12: real time    0.12
    EDDIAG:  cpu time    0.76: real time    0.76
  RMM-DIIS:  cpu time    3.28: real time    3.28
    ORTHCH:  cpu time    0.08: real time    0.08
       DOS:  cpu time    0.00: real time    0.00
    CHARGE:  cpu time    0.43: real time    0.43
    MIXING:  cpu time    0.03: real time    0.03
    --------------------------------------------
      LOOP:  cpu time    5.46: real time    5.47

 eigenvalue-minimisations  :   270
 total energy-change (2. order) :-0.9731122E+00  (-0.1284307E+00)
 number of electron      96.0000275 magnetization      27.3867148
 augmentation part       50.2045210 magnetization      22.1098751

 Broyden mixing:
  rms(total) = 0.31418E+00    rms(broyden)= 0.31413E+00
  rms(prec ) = 0.35654E+00
  weight for this iteration     100.00

 eigenvalues of (default mixing * dielectric matrix)
  average eigenvalue GAMMA=   0.9229
  2.7197  2.7197  0.8687  0.8687  0.7247  0.7247  0.8753  0.1546  0.1013  0.5788
  0.5788  0.5647  0.5176

 Free energy of the ion-electron system (eV)
  ---------------------------------------------------
  alpha Z        PSCENC =       208.58239324
  Ewald energy   TEWEN  =     10655.31659560
  -1/2 Hartree   DENC   =    -17744.39993350
  -exchange  EXHF       =         0.00000000
  -V(xc)+E(xc)   XCENC  =        49.44389503
  PAW double counting   =      8123.22278444    -8229.55078066
  entropy T*S    EENTRO =        -0.00201468
  eigenvalues    EBANDS =      -278.96227857
  atomic energy  EATOM  =      7131.53793727
  ---------------------------------------------------
  free energy    TOTEN  =       -84.81140183 eV

  energy without entropy =      -84.80938715  energy(sigma->0) =      -84.81089816


--------------------------------------------------------------------------------------------------------




----------------------------------------- Iteration    1(  24)  ---------------------------------------


    POTLOK:  cpu time    0.77: real time    0.77
    SETDIJ:  cpu time    0.12: real time    0.12
    EDDIAG:  cpu time    0.77: real time    0.77
  RMM-DIIS:  cpu time    3.40: real time    3.41
    ORTHCH:  cpu time    0.08: real time    0.08
       DOS:  cpu time    0.00: real time    0.00
    CHARGE:  cpu time    0.44: real time    0.44
    MIXING:  cpu time    0.04: real time    0.04
    --------------------------------------------
      LOOP:  cpu time    5.62: real time    5.62

 eigenvalue-minimisations  :   283
 total energy-change (2. order) :-0.5677539E+00  (-0.8239060E-01)
 number of electron      96.0000273 magnetization      27.7556012
 augmentation part       50.1586555 magnetization      21.9134343

 Broyden mixing:
  rms(total) = 0.25898E+00    rms(broyden)= 0.25885E+00
  rms(prec ) = 0.28384E+00
  weight for this iteration     100.00

 eigenvalues of (default mixing * dielectric matrix)
  average eigenvalue GAMMA=   0.8787
  2.7586  2.7586  0.8791  0.8791  0.8918  0.6917  0.6917  0.1546  0.1013  0.5464
  0.5464  0.5110  0.5110  0.3804

 Free energy of the ion-electron system (eV)
  ---------------------------------------------------
  alpha Z        PSCENC =       208.58239324
  Ewald energy   TEWEN  =     10655.31659560
  -1/2 Hartree   DENC   =    -17746.04776294
  -exchange  EXHF       =         0.00000000
  -V(xc)+E(xc)   XCENC  =        49.72671714
  PAW double counting   =      8135.67077527    -8242.33956375
  entropy T*S    EENTRO =         0.00385311
  eigenvalues    EBANDS =      -277.83010066
  atomic energy  EATOM  =      7131.53793727
  ---------------------------------------------------
  free energy    TOTEN  =       -85.37915573 eV

  energy without entropy =      -85.38300884  energy(sigma->0) =      -85.38011900


--------------------------------------------------------------------------------------------------------




----------------------------------------- Iteration    1(  25)  ---------------------------------------


    POTLOK:  cpu time    0.78: real time    0.78
    SETDIJ:  cpu time    0.12: real time    0.12
    EDDIAG:  cpu time    0.77: real time    0.78
  RMM-DIIS:  cpu time    3.47: real time    3.48
    ORTHCH:  cpu time    0.08: real time    0.08
       DOS:  cpu time    0.00: real time    0.00
    CHARGE:  cpu time    0.43: real time    0.43
    MIXING:  cpu time    0.04: real time    0.04
    --------------------------------------------
      LOOP:  cpu time    5.69: real time    5.70

 eigenvalue-minimisations  :   285
 total energy-change (2. order) :-0.4237425E+00  (-0.4028573E-01)
 number of electron      96.0000272 magnetization      27.1269234
 augmentation part       50.0871147 magnetization      20.9808649

 Broyden mixing:
  rms(total) = 0.24169E+00    rms(broyden)= 0.24164E+00
  rms(prec ) = 0.26283E+00
  weight for this iteration     100.00

 eigenvalues of (default mixing * dielectric matrix)
  average eigenvalue GAMMA=   0.8937
  2.7520  2.7520  0.6861  0.8943  0.8943  0.7630  0.7630  0.8388  0.1546  0.1013
  0.5807  0.5807  0.5666  0.5666  0.5121

 Free energy of the ion-electron system (eV)
  ---------------------------------------------------
  alpha Z        PSCENC =       208.58239324
  Ewald energy   TEWEN  =     10655.31659560
  -1/2 Hartree   DENC   =    -17746.08015472
  -exchange  EXHF       =         0.00000000
  -V(xc)+E(xc)   XCENC  =        49.58548029
  PAW double counting   =      8134.31594777    -8241.00311998
  entropy T*S    EENTRO =         0.01086890
  eigenvalues    EBANDS =      -278.06884663
  atomic energy  EATOM  =      7131.53793727
  ---------------------------------------------------
  free energy    TOTEN  =       -85.80289827 eV

  energy without entropy =      -85.81376716  energy(sigma->0) =      -85.80561549


--------------------------------------------------------------------------------------------------------




----------------------------------------- Iteration    1(  26)  ---------------------------------------


    POTLOK:  cpu time    0.77: real time    0.77
    SETDIJ:  cpu time    0.12: real time    0.12
    EDDIAG:  cpu time    0.78: real time    0.78
  RMM-DIIS:  cpu time    3.12: real time    3.12
    ORTHCH:  cpu time    0.08: real time    0.08
       DOS:  cpu time    0.00: real time    0.00
    CHARGE:  cpu time    0.43: real time    0.44
    MIXING:  cpu time    0.04: real time    0.04
    --------------------------------------------
      LOOP:  cpu time    5.34: real time    5.35

 eigenvalue-minimisations  :   255
 total energy-change (2. order) : 0.6891757E+00  (-0.5991087E-01)
 number of electron      96.0000274 magnetization      27.0648631
 augmentation part       50.0356601 magnetization      21.6794539

 Broyden mixing:
  rms(total) = 0.19953E+00    rms(broyden)= 0.19933E+00
  rms(prec ) = 0.21732E+00
  weight for this iteration     100.00

 eigenvalues of (default mixing * dielectric matrix)
  average eigenvalue GAMMA=   0.8435
  2.7512  2.7512  0.7368  0.8955  0.8955  0.7673  0.7673  0.8387  0.5809  0.5809
  0.5655  0.5655  0.5114  0.1546  0.1013  0.0321

 Free energy of the ion-electron system (eV)
  ---------------------------------------------------
  alpha Z        PSCENC =       208.58239324
  Ewald energy   TEWEN  =     10655.31659560
  -1/2 Hartree   DENC   =    -17748.40533701
  -exchange  EXHF       =         0.00000000
  -V(xc)+E(xc)   XCENC  =        49.66854939
  PAW double counting   =      8136.78466388    -8243.35950882
  entropy T*S    EENTRO =        -0.01271523
  eigenvalues    EBANDS =      -275.22630085
  atomic energy  EATOM  =      7131.53793727
  ---------------------------------------------------
  free energy    TOTEN  =       -85.11372254 eV

  energy without entropy =      -85.10100731  energy(sigma->0) =      -85.11054373


--------------------------------------------------------------------------------------------------------




----------------------------------------- Iteration    1(  27)  ---------------------------------------


    POTLOK:  cpu time    0.78: real time    0.78
    SETDIJ:  cpu time    0.12: real time    0.12
    EDDIAG:  cpu time    0.78: real time    0.78
  RMM-DIIS:  cpu time    3.62: real time    3.63
    ORTHCH:  cpu time    0.08: real time    0.08
       DOS:  cpu time    0.00: real time    0.00
    CHARGE:  cpu time    0.43: real time    0.43
    MIXING:  cpu time    0.04: real time    0.04
    --------------------------------------------
      LOOP:  cpu time    5.84: real time    5.85

 eigenvalue-minimisations  :   301
 total energy-change (2. order) : 0.9694165E-01  ( 0.1487711E-01)
 number of electron      96.0000275 magnetization      26.3933451
 augmentation part       50.0449401 magnetization      21.3103767

 Broyden mixing:
  rms(total) = 0.19966E+00    rms(broyden)= 0.19958E+00
  rms(prec ) = 0.21818E+00
  weight for this iteration     100.00

 eigenvalues of (default mixing * dielectric matrix)
  average eigenvalue GAMMA=   0.9641
  3.2094  3.2094  1.1388  1.2510  1.2510  0.8710  0.8710  0.1546  0.1013  0.6645
  0.6645  0.7103  0.5777  0.5113  0.5113  0.3458  0.3458

 Free energy of the ion-electron system (eV)
  ---------------------------------------------------
  alpha Z        PSCENC =       208.58239324
  Ewald energy   TEWEN  =     10655.31659560
  -1/2 Hartree   DENC   =    -17748.11646810
  -exchange  EXHF       =         0.00000000
  -V(xc)+E(xc)   XCENC  =        49.69796067
  PAW double counting   =      8135.59984468    -8242.11833949
  entropy T*S    EENTRO =        -0.00692353
  eigenvalues    EBANDS =      -275.50978122
  atomic energy  EATOM  =      7131.53793727
  ---------------------------------------------------
  free energy    TOTEN  =       -85.01678089 eV

  energy without entropy =      -85.00985736  energy(sigma->0) =      -85.01505001


--------------------------------------------------------------------------------------------------------




----------------------------------------- Iteration    1(  28)  ---------------------------------------


    POTLOK:  cpu time    0.77: real time    0.77
    SETDIJ:  cpu time    0.12: real time    0.12
    EDDIAG:  cpu time    0.77: real time    0.78
[...]
     58      -1.5321      1.00000
     59      -1.5148      1.00000
     60      -1.4380      1.00000
     61      -1.4253      1.00000
     62      -1.3497      1.00000
     63      -1.2966      1.00000

 spin component 2

 k-point   1 :       0.2500    0.2500    0.0000
  band No.  band energies     occupation 
      1      -7.3281      1.00000
      2      -5.2629      1.00000
      3      -5.2629      1.00000
      4      -4.4093      1.00000
      5      -4.0559      1.00000
      6      -3.5191      1.00000
      7      -3.5191      1.00000
      8      -3.3455      1.00000
      9      -3.3455      1.00000
     10      -3.2567      1.00000
     11      -3.2371      1.00000
     12      -3.2086      1.00000
     13      -2.6563      1.00000
     14      -2.5979      1.00000
     15      -2.4227      1.00000
     16      -2.3528      1.00000
     17      -2.3508      1.00000
     18      -2.3508      1.00000
     19      -2.1360      1.00000
     20      -2.1360      1.00000
     21      -2.0471      1.00000
     22      -1.9516      1.00000
     23      -1.9105      1.00000
     24      -1.9105      1.00000
     25      -1.6015      1.00000
     26      -1.2555      1.00000
     27      -1.2555      1.00000
     28      -1.1918      1.00000
     29      -1.0382      0.99900
     30      -1.0382      0.99900
     31      -0.9201      1.00863
     32      -0.8344      1.01405
     33      -0.8344      1.01405
     34      -0.6496     -0.04029
     35      -0.5777      0.00431
     36      -0.5008      0.00121
     37      -0.4053      0.00001
     38      -0.4018      0.00001
     39      -0.4018      0.00001
     40      -0.2497      0.00000
     41      -0.2497      0.00000
     42      -0.1687      0.00000
     43      -0.0960      0.00000
     44       0.1487      0.00000
     45       0.1679      0.00000
     46       0.1831      0.00000
     47       0.2841      0.00000
     48       0.2841      0.00000
     49       0.3274      0.00000
     50       0.3692      0.00000
     51       0.3692      0.00000
     52       0.5389      0.00000
     53       0.6092      0.00000
     54       0.6092      0.00000
     55       0.6948      0.00000
     56       0.6976      0.00000
     57       0.6976      0.00000
     58       0.7889      0.00000
     59       0.8452      0.00000
     60       0.8662      0.00000
     61       0.8816      0.00000
     62       1.0039      0.00000
     63       1.0630      0.00000


--------------------------------------------------------------------------------------------------------


 soft charge-density along one line, spin component           1
         0         1         2         3         4         5         6         7         8         9
 total charge-density along one line
 
 soft charge-density along one line, spin component           2
         0         1         2         3         4         5         6         7         8         9
 total charge-density along one line
 
 pseudopotential strength for first ion, spin component:           1
-10.152  -0.000   0.000   0.000  -0.000 -10.558  -0.000   0.000
 -0.000 -10.195   0.000   0.000  -0.000  -0.000 -10.601   0.000
  0.000   0.000 -10.325  -0.000  -0.000   0.000   0.000 -10.727
  0.000   0.000  -0.000 -10.195  -0.000   0.000   0.000  -0.000
 -0.000  -0.000  -0.000  -0.000 -10.171  -0.000  -0.000  -0.000
-10.558  -0.000   0.000   0.000  -0.000 -10.925  -0.000   0.000
 -0.000 -10.601   0.000   0.000  -0.000  -0.000 -10.967   0.000
  0.000   0.000 -10.727  -0.000  -0.000   0.000   0.000 -11.090
  0.000   0.000  -0.000 -10.601  -0.000   0.000   0.000  -0.000
 -0.000  -0.000  -0.000  -0.000 -10.577  -0.000  -0.000  -0.000
  0.000  -0.000   0.012   0.000  -0.000   0.000  -0.000   0.012
  0.000  -0.000   0.021   0.000  -0.000   0.000  -0.000   0.022
 -0.000   0.007  -0.000   0.000  -0.000  -0.000   0.006  -0.000
  0.000   0.000   0.004  -0.000   0.000   0.000   0.000   0.003
  0.000   0.000   0.000   0.007  -0.000   0.000   0.000   0.000
 -0.000   0.015  -0.000   0.000  -0.000  -0.000   0.014  -0.000
  0.000   0.000   0.015  -0.000   0.000   0.000   0.000   0.013
  0.000   0.000   0.000   0.015  -0.000   0.000   0.000   0.000
 pseudopotential strength for first ion, spin component:           2
 -8.248  -0.000   0.000   0.000  -0.000  -8.714  -0.000   0.000
 -0.000  -8.315   0.000  -0.000  -0.000  -0.000  -8.780   0.000
  0.000   0.000  -8.190  -0.000  -0.000   0.000   0.000  -8.657
  0.000  -0.000  -0.000  -8.315  -0.000   0.000  -0.000  -0.000
 -0.000  -0.000  -0.000  -0.000  -8.211  -0.000  -0.000  -0.000
 -8.714  -0.000   0.000   0.000  -0.000  -9.140  -0.000   0.000
 -0.000  -8.780   0.000  -0.000  -0.000  -0.000  -9.204   0.000
  0.000   0.000  -8.657  -0.000  -0.000   0.000   0.000  -9.084
  0.000  -0.000  -0.000  -8.780  -0.000   0.000  -0.000  -0.000
 -0.000  -0.000  -0.000  -0.000  -8.678  -0.000  -0.000  -0.000
  0.000  -0.000   0.000   0.000  -0.000   0.000  -0.000   0.000
  0.000  -0.000   0.000   0.000  -0.000   0.000  -0.000  -0.000
 -0.000  -0.021  -0.000   0.000  -0.000  -0.000  -0.021  -0.000
  0.000   0.000  -0.032  -0.000   0.000   0.000   0.000  -0.031
  0.000   0.000   0.000  -0.021  -0.000   0.000   0.000   0.000
 -0.000  -0.023  -0.000   0.000  -0.000  -0.000  -0.022  -0.000
  0.000   0.000  -0.033  -0.000   0.000   0.000   0.000  -0.033
  0.000   0.000   0.000  -0.023  -0.000   0.000   0.000   0.000
 total augmentation occupancy for first ion, spin component:           1
  2.459  -0.000  -0.000   0.000  -0.000  -1.138   0.000   0.000   0.000  -0.000   0.000  -0.000   0.000   0.000   0.000   0.000
  0.000   2.687   0.000   0.000   0.000   0.000  -1.265   0.000  -0.000   0.000   0.000   0.000  -0.152   0.000  -0.000  -0.015
 -0.000   0.000   3.212   0.000  -0.000  -0.000   0.000  -1.732   0.000   0.000   0.116   0.043   0.000  -0.188   0.000   0.000
  0.000  -0.000   0.000   2.687   0.000   0.000  -0.000   0.000  -1.265   0.000   0.000   0.000  -0.000   0.000  -0.152   0.000
 -0.000   0.000   0.000   0.000   3.112   0.000   0.000   0.000   0.000  -1.698   0.000   0.000   0.000   0.000   0.000   0.000
 -1.138   0.000  -0.000   0.000   0.000   1.157   0.000  -0.000   0.000  -0.000   0.000   0.000   0.000  -0.000   0.000   0.000
  0.000  -1.265   0.000  -0.000   0.000   0.000   1.220   0.000   0.000   0.000   0.000   0.000   0.261   0.000   0.000  -0.017
 -0.000   0.000  -1.732   0.000   0.000   0.000   0.000   1.518   0.000   0.000  -0.191  -0.010   0.000   0.267   0.000   0.000
  0.000   0.000   0.000  -1.265   0.000   0.000   0.000   0.000   1.220   0.000   0.000   0.000   0.000   0.000   0.261   0.000
 -0.000   0.000   0.000   0.000  -1.698  -0.000   0.000   0.000   0.000   1.629  -0.000  -0.000   0.000  -0.000   0.000   0.000
  0.000   0.000   0.116   0.000  -0.000   0.000   0.000  -0.191   0.000  -0.000   1.972  -0.177   0.000   0.262   0.000   0.000
  0.000   0.000   0.043   0.000   0.000   0.000   0.000  -0.010   0.000  -0.000  -0.177   0.023   0.000  -0.031   0.000   0.000
  0.000  -0.152   0.000  -0.000   0.000   0.000   0.261   0.000   0.000   0.000   0.000   0.000   0.204   0.000   0.000  -0.016
 -0.000   0.000  -0.188   0.000   0.000  -0.000   0.000   0.267   0.000   0.000   0.262  -0.031   0.000   0.137   0.000   0.000
  0.000  -0.000   0.000  -0.152   0.000   0.000   0.000   0.000   0.261   0.000   0.000   0.000   0.000   0.000   0.204   0.000
  0.000  -0.015   0.000   0.000   0.000   0.000  -0.017   0.000   0.000   0.000   0.000   0.000  -0.016   0.000  -0.000   0.002
  0.000   0.000  -0.030   0.000   0.000  -0.000   0.000  -0.010   0.000  -0.000  -0.037   0.003   0.000  -0.014   0.000   0.000
  0.000   0.000   0.000  -0.015   0.000   0.000   0.000   0.000  -0.017   0.000   0.000   0.000  -0.000   0.000  -0.016   0.000
 total augmentation occupancy for first ion, spin component:           2
  2.268  -0.000   0.000   0.000   0.000  -0.901   0.000   0.000   0.000  -0.000   0.000   0.000   0.000   0.000   0.000   0.000
  0.000   2.304   0.000  -0.000   0.000   0.000  -0.963   0.000  -0.000   0.000   0.000   0.000  -0.024   0.000  -0.000  -0.028
  0.000   0.000   2.857   0.000   0.000   0.000   0.000  -1.199   0.000   0.000   0.016   0.051   0.000  -0.059   0.000   0.000
 -0.000  -0.000   0.000   2.304   0.000   0.000  -0.000   0.000  -0.963   0.000   0.000   0.000  -0.000   0.000  -0.024   0.000
  0.000   0.000  -0.000   0.000   2.710  -0.000   0.000   0.000   0.000  -1.189  -0.000   0.000   0.000  -0.000   0.000   0.000
 -0.901   0.000   0.000   0.000  -0.000   0.132   0.000   0.000   0.000   0.000  -0.000   0.000   0.000  -0.000   0.000   0.000
  0.000  -0.963   0.000   0.000   0.000   0.000   0.211   0.000   0.000   0.000   0.000   0.000  -0.029   0.000   0.000   0.018
  0.000   0.000  -1.199   0.000  -0.000  -0.000   0.000   0.324   0.000  -0.000   0.035  -0.028   0.000  -0.013   0.000   0.000
  0.000   0.000   0.000  -0.963   0.000   0.000   0.000   0.000   0.211   0.000   0.000   0.000  -0.000   0.000  -0.029  -0.000
  0.000   0.000   0.000   0.000  -1.189   0.000   0.000  -0.000   0.000   0.310   0.000   0.000   0.000  -0.000   0.000   0.000
  0.000   0.000   0.016   0.000   0.000   0.000   0.000   0.035   0.000  -0.000  -0.276   0.097   0.000  -0.045   0.000   0.000
  0.000   0.000   0.051   0.000   0.000   0.000   0.000  -0.028   0.000   0.000   0.097  -0.013   0.000   0.012   0.000   0.000
  0.000  -0.024   0.000  -0.000   0.000   0.000  -0.029   0.000  -0.000   0.000   0.000   0.000  -0.026   0.000   0.000   0.005
  0.000   0.000  -0.059   0.000  -0.000  -0.000   0.000  -0.013   0.000  -0.000  -0.045   0.012   0.000  -0.009   0.000   0.000
  0.000   0.000   0.000  -0.024   0.000   0.000   0.000   0.000  -0.029   0.000   0.000   0.000   0.000   0.000  -0.026  -0.000
  0.000  -0.028   0.000   0.000   0.000   0.000   0.018   0.000  -0.000   0.000   0.000   0.000   0.005   0.000  -0.000  -0.000
  0.000   0.000  -0.046   0.000   0.000   0.000   0.000   0.027   0.000   0.000   0.004  -0.003   0.000   0.004   0.000   0.000
  0.000  -0.000   0.000  -0.028   0.000   0.000  -0.000   0.000   0.018   0.000   0.000   0.000   0.000   0.000   0.005   0.000


------------------------ aborting loop because EDIFF is reached ----------------------------------------



 ----------------------------------------------------------------------------- 
|                                                                             |
|           W    W    AA    RRRRR   N    N  II  N    N   GGGG   !!!           |
|           W    W   A  A   R    R  NN   N  II  NN   N  G    G  !!!           |
|           W    W  A    A  R    R  N N  N  II  N N  N  G       !!!           |
|           W WW W  AAAAAA  RRRRR   N  N N  II  N  N N  G  GGG   !            |
|           WW  WW  A    A  R   R   N   NN  II  N   NN  G    G                |
|           W    W  A    A  R    R  N    N  II  N    N   GGGG   !!!           |
|                                                                             |
|      Your highest band is occupied at some k-points! Unless you are         |
|      performing a calculation for an insulator or semiconductor, without    |
|      unoccupied bands, you have included TOO FEW BANDS!! Please increase    |
|      the parameter NBANDS in file INCAR to ensure that the highest band   |
|      is unoccupied at all k-points. It is always recommended to             |
|      include a few unoccupied bands to accelerate the convergence of        |
|      molecular dynamics runs (even for insulators or semiconductors).       |
|      Because the presence of unoccupied bands improves wavefunction         |
|      prediction, and helps to suppress 'band-crossings.'                    |
|      Following all k-points will be listed (with the Fermi weights of       |
|      the highest band given in paranthesis) ... :                           |
|                                                                             |
|                          1       ( 1.00000)                                 |
|                                                                             |
|      The total occupancy of band no.    63 is   1.00000 electrons ...       |
|                                                                             |
 ----------------------------------------------------------------------------- 

    CHARGE:  cpu time    0.45: real time    0.45
    FORLOC:  cpu time    0.05: real time    0.05
    FORNL :  cpu time    2.97: real time    2.97
    STRESS:  cpu time    2.82: real time    2.82
    FORCOR:  cpu time    0.85: real time    0.85
    FORHAR:  cpu time    0.11: real time    0.11
    MIXING:  cpu time    0.02: real time    0.02

  FORCE on cell =-STRESS in cart. coord.  units (eV):
  Direction    XX          YY          ZZ          XY          YZ          ZX
  --------------------------------------------------------------------------------------
  Alpha Z   208.58239   208.58239   208.58239
  Ewald   15181.79293 15181.79293-19666.48509    -0.00000    -0.00000    -0.00000
  Hartree 16894.21249 16894.21249-16014.37733    -0.00000    -0.00000    -0.00000
  E(xc)    -472.93265  -472.93265  -474.01193    -0.00000    -0.00000     0.00000
  Local  -32822.02099-32822.02099 34947.09506     0.00000    -0.00000     0.00000
  n-local  -325.07855  -323.63236  -331.66777    -2.32428    -0.00000    -0.00000
  augment   464.68160   464.68160   462.74008    -0.00000     0.00000    -0.00000
  Kinetic   856.15627   857.22945   867.70244     2.85646    -0.00000    -0.00001
  Fock        0.00000     0.00000     0.00000     0.00000     0.00000     0.00000
  -------------------------------------------------------------------------------------
  Total     -13.34682   -13.34682    -0.42214    -0.00000     0.00000    -0.00000
  in kB     -44.81662   -44.81662    -1.41750    -0.00000     0.00000    -0.00000
  external pressure =      -30.35 kB  Pullay stress =        0.00 kB


 VOLUME and BASIS-vectors are now :
 -----------------------------------------------------------------------------
  energy-cutoff  :      350.00
  volume of cell :      477.14
      direct lattice vectors                 reciprocal lattice vectors
     5.640000000  0.000000000  0.000000000     0.177304965  0.000000000  0.000000000
     0.000000000  5.640000000  0.000000000     0.000000000  0.177304965  0.000000000
     0.000000000  0.000000000 15.000000000     0.000000000  0.000000000  0.066666667

  length of vectors
     5.640000000  5.640000000 15.000000000     0.177304965  0.177304965  0.066666667


 FORCES acting on ions
    electron-ion (+dipol)            ewald-force                    non-local-force                 convergence-correction
 -----------------------------------------------------------------------------------------------
   -.107E-13 -.526E-14 0.967E+03   0.432E-13 0.587E-13 -.962E+03   0.000E+00 0.000E+00 -.587E+01   0.103E-13 0.182E-13 0.458E+00
   0.301E-12 0.229E-13 0.967E+03   0.432E-13 0.587E-13 -.962E+03   0.000E+00 0.000E+00 -.587E+01   0.868E-14 0.544E-13 0.458E+00
   -.199E-14 0.347E-12 0.967E+03   0.432E-13 0.588E-13 -.962E+03   0.000E+00 0.000E+00 -.587E+01   0.698E-14 0.173E-13 0.458E+00
   0.301E-12 0.286E-12 0.967E+03   0.432E-13 0.588E-13 -.962E+03   0.000E+00 0.000E+00 -.587E+01   0.864E-14 -.104E-13 0.458E+00
   0.154E-12 0.153E-12 -.199E+01   -.568E-13 -.568E-13 0.828E+00   0.000E+00 0.000E+00 -.207E-01   -.149E-12 0.484E-13 0.113E+01
   0.524E-12 0.445E-12 -.199E+01   -.568E-13 -.568E-13 0.828E+00   0.000E+00 0.000E+00 -.207E-01   0.138E-12 0.445E-13 0.113E+01
   0.149E-12 0.633E-12 -.199E+01   -.568E-13 -.711E-13 0.828E+00   0.000E+00 0.000E+00 -.207E-01   -.116E-12 0.192E-14 0.113E+01
   0.522E-12 0.380E-12 -.199E+01   -.568E-13 -.711E-13 0.828E+00   0.000E+00 0.000E+00 -.207E-01   0.103E-12 -.217E-14 0.113E+01
   -.109E-13 0.142E-13 -.967E+03   0.123E-13 0.277E-14 0.961E+03   0.000E+00 0.000E+00 0.589E+01   -.174E-13 -.417E-13 0.576E+00
   0.295E-12 -.198E-13 -.967E+03   0.142E-13 0.187E-14 0.961E+03   0.000E+00 0.000E+00 0.589E+01   -.118E-13 -.246E-12 0.576E+00
   -.145E-13 0.311E-12 -.967E+03   0.156E-13 0.109E-13 0.961E+03   0.000E+00 0.000E+00 0.589E+01   -.211E-13 0.422E-13 0.576E+00
   0.294E-12 0.308E-12 -.967E+03   0.175E-13 0.998E-14 0.961E+03   0.000E+00 0.000E+00 0.589E+01   -.111E-13 0.218E-12 0.576E+00
 -----------------------------------------------------------------------------------------------
   0.250E-11 0.288E-11 -.877E+01   0.511E-14 0.458E-14 -.102E-11   0.000E+00 0.000E+00 -.268E-03   -.500E-13 0.144E-12 0.865E+01
 
 
 POSITION                                       TOTAL-FORCE (eV/Angst)
 -----------------------------------------------------------------------------------
      0.00000      0.00000      0.00000        -0.000000      0.000000      0.040947
      2.82000      0.00000      0.00000        -0.000000      0.000000      0.040947
      0.00000      2.82000      0.00000        -0.000000     -0.000000      0.040947
      2.82000      2.82000      0.00000        -0.000000     -0.000000      0.040947
      1.41000      1.41000      1.41000        -0.000000      0.000000     -0.046211
      4.23000      1.41000      1.41000         0.000000      0.000000     -0.046211
      1.41000      4.23000      1.41000        -0.000000     -0.000000     -0.046211
      4.23000      4.23000      1.41000         0.000000     -0.000000     -0.046211
      0.00000     -0.00000      2.80912         0.000000     -0.000000      0.005264
      2.82000      0.00000      2.80912        -0.000000     -0.000000      0.005264
      0.00000      2.82000      2.80912         0.000000      0.000000      0.005264
      2.82000      2.82000      2.80912        -0.000000     -0.000000      0.005264
 -----------------------------------------------------------------------------------
    total drift:                                0.000000      0.000000     -0.120068


--------------------------------------------------------------------------------------------------------



  FREE ENERGIE OF THE ION-ELECTRON SYSTEM (eV)
  ---------------------------------------------------
  free  energy   TOTEN  =       -88.45705992 eV

  energy  without entropy=      -88.46868960  energy(sigma->0) =      -88.45996734
 
 d Force = 0.5932614E-04[-0.443E-04, 0.163E-03]  d Energy =-0.4229047E-04 0.102E-03
 d Force =-0.8093383E+01[-0.809E+01,-0.809E+01]  d Ewald  =-0.8093384E+01 0.814E-06


--------------------------------------------------------------------------------------------------------


    POTLOK:  cpu time    0.95: real time    0.95


--------------------------------------------------------------------------------------------------------




--------------------------------------------------------------------------------------------------------


  
 reached required accuracy - stopping structural energy minimisation
     LOOP+:  cpu time   29.83: real time   29.87
    4ORBIT:  cpu time    0.00: real time    0.00

 total amount of memory used by VASP on root node    99017. kBytes
========================================================================

   base      :      30000. kBytes
   nonl-proj :       2383. kBytes
   fftplans  :      15148. kBytes
   grid      :      36377. kBytes
   one-center:        373. kBytes
   wavefun   :      14736. kBytes
 
  
  
 General timing and accounting informations for this job:
 ========================================================
  
                  Total CPU time used (sec):      734.688
                            User time (sec):      733.384
                          System time (sec):        1.304
                         Elapsed time (sec):      735.648
  
                   Maximum memory used (kb):      177848.
                   Average memory used (kb):           0.
  
                          Minor page faults:       448071
                          Major page faults:            0
                 Voluntary context switches:           10
