<?xml version="1.0" encoding="ISO-8859-1"?>
<modeling>
 <generator>
  <i name="program" type="string">vasp </i>
  <i name="version" type="string">5.3.3  </i>
  <i name="subversion" type="string">18Dez12 (build Sep  7 2015 22:32:56) complex                          parallel </i>
  <i name="platform" type="string">LinuxIFC </i>
  <i name="date" type="string">2022 12 08 </i>
  <i name="time" type="string">15:55:16 </i>
 </generator>
 <incar>
  <i type="string" name="SYSTEM"> Crystal</i>
  <i type="int" name="ISTART">     0</i>
  <i type="string" name="PREC">normal</i>
  <i type="string" name="ALGO"> fast</i>
  <i type="int" name="NSIM">     4</i>
  <i type="int" name="ISPIN">     2</i>
  <i type="int" name="ICHARG">     2</i>
  <i type="int" name="NELMDL">   -10</i>
  <i type="int" name="NELMIN">     4</i>
  <i type="int" name="IBRION">     2</i>
  <i name="EDIFF">      0.00010000</i>
  <i name="EDIFFG">     -0.01000000</i>
  <i type="int" name="NSW">   300</i>
  <i name="ENCUT">    350.00000000</i>
  <i type="logical" name="LREAL"> F  </i>
  <i type="int" name="ISMEAR">     2</i>
  <i name="SIGMA">      0.10000000</i>
  <i type="logical" name="LWAVE"> F  </i>
  <i type="logical" name="LCHARG"> F  </i>
 </incar>
 <kpoints>
  <generation param="Monkhorst-Pack">
   <v type="int" name="divisions">       2        2        1 </v>
   <v name="usershift">      0.00000000       0.00000000       0.00000000 </v>
   <v name="genvec1">      0.50000000       0.00000000       0.00000000 </v>
   <v name="genvec2">      0.00000000       0.50000000       0.00000000 </v>
   <v name="genvec3">      0.00000000       0.00000000       1.00000000 </v>
   <v name="shift">      0.50000000       0.50000000       0.00000000 </v>
  </generation>
  <varray name="kpointlist" >
   <v>       0.25000000       0.25000000       0.00000000 </v>
  </varray>
  <varray name="weights" >
   <v>       1.00000000 </v>
  </varray>
 </kpoints>
 <parameters>
  <separator name="general" >
   <i type="string" name="SYSTEM">Crystal</i>
   <i type="logical" name="LCOMPAT"> F  </i>
  </separator>
  <separator name="electronic" >
   <i type="string" name="PREC">normal</i>
   <i name="ENMAX">    350.00000000</i>
   <i name="ENAUG">    511.36800000</i>
   <i name="EDIFF">      0.00010000</i>
   <i type="int" name="IALGO">    68</i>
   <i type="int" name="IWAVPR">    11</i>
   <i type="int" name="NBANDS">    63</i>
   <i name="NELECT">     96.00000000</i>
   <i type="int" name="TURBO">     0</i>
   <i type="int" name="IRESTART">     0</i>
   <i type="int" name="NREBOOT">     0</i>
   <i type="int" name="NMIN">     0</i>
   <i name="EREF">      0.00000000</i>
   <separator name="electronic smearing" >
    <i type="int" name="ISMEAR">     2</i>
    <i name="SIGMA">      0.10000000</i>
    <i name="KSPACING">      0.50000000</i>
    <i type="logical" name="KGAMMA"> T  </i>
   </separator>
   <separator name="electronic projectors" >
    <i type="logical" name="LREAL"> F  </i>
    <v name="ROPT">      0.00000000</v>
    <i type="int" name="LMAXPAW">  -100</i>
    <i type="int" name="LMAXMIX">     2</i>
    <i type="logical" name="NLSPLINE"> F  </i>
   </separator>
   <separator name="electronic startup" >
    <i type="int" name="ISTART">     0</i>
    <i type="int" name="ICHARG">     2</i>
    <i type="int" name="INIWAV">     1</i>
   </separator>
   <separator name="electronic spin" >
    <i type="int" name="ISPIN">     2</i>
    <i type="logical" name="LNONCOLLINEAR"> F  </i>
    <v name="MAGMOM">      1.00000000      1.00000000      1.00000000      1.00000000      1.00000000      1.00000000      1.00000000      1.00000000      1.00000000      1.00000000      1.00000000      1.00000000</v>
    <i name="NUPDOWN">     -1.00000000</i>
    <i type="logical" name="LSORBIT"> F  </i>
    <v name="SAXIS">      0.00000000      0.00000000      1.00000000</v>
    <i type="logical" name="LSPIRAL"> F  </i>
    <v name="QSPIRAL">      0.00000000      0.00000000      0.00000000</v>
    <i type="logical" name="LZEROZ"> F  </i>
   </separator>
   <separator name="electronic exchange-correlation" >
    <i type="logical" name="LASPH"> F  </i>
    <i type="logical" name="LMETAGGA"> F  </i>
   </separator>
   <separator name="electronic convergence" >
    <i type="int" name="NELM">    60</i>
    <i type="int" name="NELMDL">   -10</i>
    <i type="int" name="NELMIN">     4</i>
    <i name="ENINI">    350.00000000</i>
    <separator name="electronic convergence detail" >
     <i type="logical" name="LDIAG"> T  </i>
     <i type="logical" name="LSUBROT"> T  </i>
     <i name="WEIMIN">      0.00100000</i>
     <i name="EBREAK">      0.00000040</i>
     <i name="DEPER">      0.30000000</i>
     <i type="int" name="NRMM">     4</i>
     <i name="TIME">      0.40000000</i>
    </separator>
   </separator>
   <separator name="electronic mixer" >
    <i name="AMIX">      0.40000000</i>
    <i name="BMIX">      1.00000000</i>
    <i name="AMIN">      0.10000000</i>
    <i name="AMIX_MAG">      1.60000000</i>
    <i name="BMIX_MAG">      1.00000000</i>
    <separator name="electronic mixer details" >
     <i type="int" name="IMIX">     4</i>
     <i type="int" name="MAXMIX">   -45</i>
     <i name="WC">    100.00000000</i>
     <i type="int" name="INIMIX">     1</i>
     <i type="int" name="MIXPRE">     1</i>
     <i type="int" name="MREMOVE">     5</i>
    </separator>
   </separator>
   <separator name="electronic dipolcorrection" >
    <i type="logical" name="LDIPOL"> F  </i>
    <i type="logical" name="LMONO"> F  </i>
    <i type="int" name="IDIPOL">     0</i>
    <i name="EPSILON">      1.00000000</i>
    <v name="DIPOL">   -100.00000000   -100.00000000   -100.00000000</v>
    <i name="EFIELD">      0.00000000</i>
   </separator>
  </separator>
  <separator name="grids" >
   <i type="int" name="NGX">    28</i>
   <i type="int" name="NGY">    28</i>
   <i type="int" name="NGZ">    70</i>
   <i type="int" name="NGXF">    56</i>
   <i type="int" name="NGYF">    56</i>
   <i type="int" name="NGZF">   140</i>
   <i type="logical" name="ADDGRID"> F  </i>
  </separator>
  <separator name="ionic" >
   <i type="int" name="NSW">   300</i>
   <i type="int" name="IBRION">     2</i>
   <i type="int" name="ISIF">     2</i>
   <i name="PSTRESS">      0.00000000</i>
   <i name="EDIFFG">     -0.01000000</i>
   <i type="int" name="NFREE">     1</i>
   <i name="POTIM">      0.50000000</i>
   <i name="SMASS">     -3.00000000</i>
   <i name="SCALEE">      1.00000000</i>
  </separator>
  <separator name="ionic md" >
   <i name="TEBEG">      0.00010000</i>
   <i name="TEEND">      0.00010000</i>
   <i type="int" name="NBLOCK">     1</i>
   <i type="int" name="KBLOCK">   300</i>
   <i type="int" name="NPACO">   256</i>
   <i name="APACO">     16.00000000</i>
  </separator>
  <separator name="symmetry" >
   <i type="int" name="ISYM">     2</i>
   <i name="SYMPREC">      0.00001000</i>
  </separator>
  <separator name="dos" >
   <i type="logical" name="LORBIT"> F  </i>
   <v name="RWIGS">     -1.00000000</v>
   <i type="int" name="NEDOS">   301</i>
   <i name="EMIN">     10.00000000</i>
   <i name="EMAX">    -10.00000000</i>
   <i name="EFERMI">      0.00000000</i>
  </separator>
  <separator name="writing" >
   <i type="int" name="NWRITE">     2</i>
   <i type="logical" name="LWAVE"> F  </i>
   <i type="logical" name="LCHARG"> F  </i>
   <i type="logical" name="LPARD"> F  </i>
   <i type="logical" name="LVTOT"> F  </i>
   <i type="logical" name="LVHAR"> F  </i>
   <i type="logical" name="LELF"> F  </i>
   <i type="logical" name="LOPTICS"> F  </i>
   <v name="STM">      0.00000000      0.00000000      0.00000000      0.00000000      0.00000000      0.00000000      0.00000000</v>
  </separator>
  <separator name="performance" >
   <i type="int" name="NPAR">     1</i>
   <i type="int" name="NSIM">     4</i>
   <i type="int" name="NBLK">    -1</i>
   <i type="logical" name="LPLANE"> T  </i>
   <i type="logical" name="LSCALAPACK"> F  </i>
   <i type="logical" name="LSCAAWARE"> F  </i>
   <i type="logical" name="LSCALU"> F  </i>
   <i type="logical" name="LASYNC"> F  </i>
   <i type="logical" name="LORBITALREAL"> F  </i>
  </separator>
  <separator name="miscellaneous" >
   <i type="int" name="IDIOT">     3</i>
   <i type="logical" name="LMUSIC"> F  </i>
   <v name="POMASS">     55.84700000</v>
   <v name="DARWINR">      0.00000000</v>
   <v name="DARWINV">      1.00000000</v>
   <i type="logical" name="LCORR"> T  </i>
  </separator>
  <i type="logical" name="GGA_COMPAT"> T  </i>
  <i type="logical" name="LBERRY"> F  </i>
  <i type="int" name="ICORELEVEL">     0</i>
  <i type="logical" name="LDAU"> F  </i>
  <i type="int" name="I_CONSTRAINED_M">     0</i>
  <separator name="electronic exchange-correlation" >
   <i type="string" name="GGA">--</i>
   <i type="int" name="VOSKOWN">     0</i>
   <i type="logical" name="LHFCALC"> F  </i>
   <i type="string" name="PRECFOCK"></i>
   <i type="logical" name="LSYMGRAD"> F  </i>
   <i type="logical" name="LHFONE"> F  </i>
   <i type="logical" name="LRHFCALC"> F  </i>
   <i type="logical" name="LTHOMAS"> F  </i>
   <i type="logical" name="LMODELHF"> F  </i>
   <i name="ENCUT4O">     -1.00000000</i>
   <i type="int" name="EXXOEP">     0</i>
   <i type="int" name="FOURORBIT">     0</i>
   <i name="AEXX">      0.00000000</i>
   <i name="HFALPHA">      0.00000000</i>
   <i name="MCALPHA">      0.00000000</i>
   <i name="ALDAX">      1.00000000</i>
   <i name="AGGAX">      1.00000000</i>
   <i name="ALDAC">      1.00000000</i>
   <i name="AGGAC">      1.00000000</i>
   <i type="int" name="NKREDX">     1</i>
   <i type="int" name="NKREDY">     1</i>
   <i type="int" name="NKREDZ">     1</i>
   <i type="logical" name="SHIFTRED"> F  </i>
   <i type="logical" name="ODDONLY"> F  </i>
   <i type="logical" name="EVENONLY"> F  </i>
   <i type="int" name="LMAXFOCK">     0</i>
   <i type="int" name="NMAXFOCKAE">     0</i>
   <i type="logical" name="LFOCKAEDFT"> F  </i>
   <i name="HFSCREEN">      0.00000000</i>
   <i name="HFSCREENC">      0.00000000</i>
   <i type="int" name="NBANDSGWLOW">     0</i>
  </separator>
  <separator name="vdW DFT" >
   <i type="logical" name="LUSE_VDW"> F  </i>
   <i name="Zab_VDW">     -0.84910000</i>
   <i name="PARAM1">      0.12340000</i>
   <i name="PARAM2">      1.00000000</i>
   <i name="PARAM3">      0.00000000</i>
  </separator>
  <separator name="model GW" >
   <i type="int" name="MODEL_GW">     0</i>
   <i name="MODEL_EPS0">     23.85720000</i>
   <i name="MODEL_ALPHA">      1.00000000</i>
  </separator>
  <separator name="linear response parameters" >
   <i type="logical" name="LEPSILON"> F  </i>
   <i type="logical" name="LRPA"> F  </i>
   <i type="logical" name="LNABLA"> F  </i>
   <i type="logical" name="LVEL"> F  </i>
   <i type="int" name="KINTER">     0</i>
   <i name="CSHIFT">      0.10000000</i>
   <i name="OMEGAMAX">     -1.00000000</i>
   <i name="DEG_THRESHOLD">      0.00200000</i>
  </separator>
  <separator name="orbital magnetization" >
   <i type="logical" name="NUCIND"> F  </i>
   <v name="MAGPOS">      0.00000000      0.00000000      0.00000000</v>
   <i type="logical" name="LNICSALL"> T  </i>
   <i type="logical" name="ORBITALMAG"> F  </i>
   <i type="logical" name="LMAGBLOCH"> F  </i>
   <i type="logical" name="LCHIMAG"> F  </i>
   <i type="logical" name="LGAUGE"> T  </i>
   <i type="int" name="MAGATOM">     0</i>
   <v name="MAGDIPOL">      0.00000000      0.00000000      0.00000000</v>
   <v name="AVECCONST">      0.00000000      0.00000000      0.00000000</v>
  </separator>
  <separator name="response functions" >
   <i type="logical" name="LADDER"> F  </i>
   <i type="logical" name="LFXC"> F  </i>
   <i type="logical" name="LHARTREE"> T  </i>
   <i type="int" name="IBSE">     0</i>
   <i type="logical" name="LTCTE"> F  </i>
   <i type="logical" name="LTETE"> F  </i>
   <i type="logical" name="LTRIPLET"> F  </i>
   <i type="logical" name="LFXCEPS"> F  </i>
   <i type="logical" name="L2ORDER"> F  </i>
   <i type="logical" name="LUSEW"> F  </i>
   <i name="ENCUTGW">     -2.00000000</i>
   <i name="ENCUTGWSOFT">     -2.00000000</i>
   <i name="ENCUTLF">     -1.00000000</i>
   <i type="int" name="LMAXMP2">    -1</i>
   <i name="SCISSOR">      0.00000000</i>
   <i type="int" name="NOMEGA">     0</i>
   <i type="int" name="NOMEGAR">     0</i>
   <i type="int" name="NBANDSGW">    -1</i>
   <i type="int" name="NBANDSO">    -1</i>
   <i type="int" name="NBANDSV">    -1</i>
   <i type="int" name="NELM">     1</i>
   <i type="int" name="DIM">     3</i>
   <i type="int" name="ANTIRES">     0</i>
   <i name="OMEGAMAX">    -30.00000000</i>
   <i name="OMEGATL">   -200.00000000</i>
   <i type="int" name="OMEGAGRID">     0</i>
   <i name="CSHIFT">     -0.10000000</i>
   <i type="logical" name="SELFENERGY"> F  </i>
   <i type="logical" name="LSPECTRAL"> F  </i>
   <i type="logical" name="ODDONLYGW"> F  </i>
   <i type="logical" name="EVENONLYGW"> F  </i>
   <i type="int" name="NKREDLFX">     1</i>
   <i type="int" name="NKREDLFY">     1</i>
   <i type="int" name="NKREDLFZ">     1</i>
   <i type="int" name="MAXMEM">  1800</i>
   <i type="int" name="TELESCOPE">     0</i>
  </separator>
 </parameters>
 <atominfo>
  <atoms>      12 </atoms>
  <types>       1 </types>
  <array name="atoms" >
   <dimension dim="1">ion</dimension>
   <field type="string">element</field>
   <field type="int">atomtype</field>
   <set>
    <rc><c>Fe</c><c>   1</c></rc>
    <rc><c>Fe</c><c>   1</c></rc>
    <rc><c>Fe</c><c>   1</c></rc>
    <rc><c>Fe</c><c>   1</c></rc>
    <rc><c>Fe</c><c>   1</c></rc>
    <rc><c>Fe</c><c>   1</c></rc>
    <rc><c>Fe</c><c>   1</c></rc>
    <rc><c>Fe</c><c>   1</c></rc>
    <rc><c>Fe</c><c>   1</c></rc>
    <rc><c>Fe</c><c>   1</c></rc>
    <rc><c>Fe</c><c>   1</c></rc>
    <rc><c>Fe</c><c>   1</c></rc>
   </set>
  </array>
  <array name="atomtypes" >
   <dimension dim="1">type</dimension>
   <field type="int">atomspertype</field>
   <field type="string">element</field>
   <field>mass</field>
   <field>valence</field>
   <field type="string">pseudopotential</field>
   <set>
    <rc><c>  12</c><c>Fe</c><c>     55.84700000</c><c>      8.00000000</c><c>  PAW_PBE Fe 06Sep2000                  </c></rc>
   </set>
  </array>
 </atominfo>
 <structure name="initialpos" >
  <crystal>
   <varray name="basis" >
    <v>       5.64000000       0.00000000       0.00000000 </v>
    <v>       0.00000000       5.64000000       0.00000000 </v>
    <v>       0.00000000       0.00000000      15.00000000 </v>
   </varray>
   <i name="volume">    477.14400000 </i>
   <varray name="rec_basis" >
    <v>       0.17730496       0.00000000       0.00000000 </v>
    <v>       0.00000000       0.17730496       0.00000000 </v>
    <v>       0.00000000       0.00000000       0.06666667 </v>
   </varray>
  </crystal>
  <varray name="positions" >
   <v>       0.00000000       0.00000000       0.00000000 </v>
   <v>       0.50000000       0.00000000       0.00000000 </v>
   <v>       0.00000000       0.50000000       0.00000000 </v>
   <v>       0.50000000       0.50000000       0.00000000 </v>
   <v>       0.25000000       0.25000000       0.09400000 </v>
   <v>       0.75000000       0.25000000       0.09400000 </v>
   <v>       0.25000000       0.75000000       0.09400000 </v>
   <v>       0.75000000       0.75000000       0.09400000 </v>
   <v>       0.00000000       0.00000000       0.18800000 </v>
   <v>       0.50000000       0.00000000       0.18800000 </v>
   <v>       0.00000000       0.50000000       0.18800000 </v>
   <v>       0.50000000       0.50000000       0.18800000 </v>
  </varray>
  <varray name="selective"  type="logical" >
   <v type="logical" >  F  F  F </v>
   <v type="logical" >  F  F  F </v>
   <v type="logical" >  F  F  F </v>
   <v type="logical" >  F  F  F </v>
   <v type="logical" >  F  F  F </v>
   <v type="logical" >  F  F  F </v>
   <v type="logical" >  F  F  F </v>
   <v type="logical" >  F  F  F </v>
   <v type="logical" >  T  T  T </v>
   <v type="logical" >  T  T  T </v>
   <v type="logical" >  T  T  T </v>
   <v type="logical" >  T  T  T </v>
  </varray>
  <nose>
   <v>      -3.00000000       0.00000000       0.00010000       0.00010000 </v>
  </nose>
 </structure>
 <calculation>
  <scstep>
   <time name="dav">    4.05    4.05</time>
   <time name="total">    4.95    4.95</time>
   <energy>
    <i name="alphaZ">    208.58239324 </i>
    <i name="ewald">  10655.31659560 </i>
    <i name="hartreedc"> -17716.81105301 </i>
    <i name="XCdc">     40.56673374 </i>
    <i name="pawpsdc">   6656.72073468 </i>
    <i name="pawaedc">  -6749.17102895 </i>
    <i name="eentropy">      0.00025496 </i>
    <i name="bandstr">    413.76730090 </i>
    <i name="atom">   7131.53793727 </i>
    <i name="e_fr_energy">    640.50986842 </i>
    <i name="e_wo_entrp">    640.50961346 </i>
    <i name="e_0_energy">    640.50980468 </i>
   </energy>
  </scstep>
  <scstep>
   <time name="dav">    3.99    4.00</time>
   <time name="total">    3.99    4.00</time>
   <energy>
    <i name="e_fr_energy">    -40.43860468 </i>
    <i name="e_wo_entrp">    -40.45557662 </i>
    <i name="e_0_energy">    -40.44284766 </i>
   </energy>
  </scstep>
  <scstep>
   <time name="dav">    4.98    4.98</time>
   <time name="total">    4.98    4.98</time>
   <energy>
    <i name="e_fr_energy">    -89.68846389 </i>
    <i name="e_wo_entrp">    -89.71187680 </i>
    <i name="e_0_energy">    -89.69431712 </i>
   </energy>
  </scstep>
  <scstep>
   <time name="dav">    6.23    6.24</time>
   <time name="total">    6.24    6.24</time>
   <energy>
    <i name="e_fr_energy">    -96.64872241 </i>
    <i name="e_wo_entrp">    -96.66783285 </i>
    <i name="e_0_energy">    -96.65350002 </i>
   </energy>
  </scstep>
  <scstep>
   <time name="dav">    5.50    5.51</time>
   <time name="total">    5.50    5.51</time>
   <energy>
    <i name="e_fr_energy">    -97.24374941 </i>
    <i name="e_wo_entrp">    -97.23357090 </i>
    <i name="e_0_energy">    -97.24120479 </i>
   </energy>
  </scstep>
  <scstep>
   <time name="dav">    6.53    6.53</time>
   <time name="total">    6.53    6.54</time>
   <energy>
    <i name="e_fr_energy">    -97.34319459 </i>
    <i name="e_wo_entrp">    -97.32892471 </i>
    <i name="e_0_energy">    -97.33962712 </i>
   </energy>
  </scstep>
  <scstep>
   <time name="dav">    5.64    5.65</time>
   <time name="total">    5.64    5.65</time>
   <energy>
    <i name="e_fr_energy">    -97.36785175 </i>
    <i name="e_wo_entrp">    -97.35311085 </i>
    <i name="e_0_energy">    -97.36416653 </i>
   </energy>
  </scstep>
  <scstep>
   <time name="dav">    4.78    4.79</time>
   <time name="total">    4.78    4.79</time>
   <energy>
    <i name="e_fr_energy">    -97.37598187 </i>
    <i name="e_wo_entrp">    -97.36095529 </i>
    <i name="e_0_energy">    -97.37222523 </i>
   </energy>
  </scstep>
  <scstep>
   <time name="dav">    4.27    4.28</time>
   <time name="total">    4.27    4.28</time>
   <energy>
    <i name="e_fr_energy">    -97.37838257 </i>
    <i name="e_wo_entrp">    -97.36321250 </i>
    <i name="e_0_energy">    -97.37459005 </i>
   </energy>
  </scstep>
  <scstep>
   <time name="dav">    3.93    3.94</time>
   <time name="total">    4.38    4.39</time>
   <energy>
    <i name="e_fr_energy">    -97.37915139 </i>
    <i name="e_wo_entrp">    -97.36390231 </i>
    <i name="e_0_energy">    -97.37533912 </i>
   </energy>
  </scstep>
  <scstep>
   <time name="diag">    0.78    0.78</time>
   <time name="diis">    3.10    3.10</time>
   <time name="orth">    0.08    0.08</time>
   <time name="total">    5.32    5.32</time>
   <energy>
    <i name="e_fr_energy">   -108.95955952 </i>
    <i name="e_wo_entrp">   -108.93410642 </i>
    <i name="e_0_energy">   -108.95319625 </i>
   </energy>
  </scstep>
  <scstep>
   <time name="diag">    0.78    0.78</time>
   <time name="diis">    3.10    3.10</time>
   <time name="orth">    0.08    0.08</time>
   <time name="total">    5.31    5.31</time>
   <energy>
    <i name="e_fr_energy">   -100.93229929 </i>
    <i name="e_wo_entrp">   -100.90426031 </i>
    <i name="e_0_energy">   -100.92528954 </i>
   </energy>
  </scstep>
  <scstep>
   <time name="diag">    0.78    0.78</time>
   <time name="diis">    3.08    3.08</time>
   <time name="orth">    0.08    0.08</time>
   <time name="total">    5.26    5.27</time>
   <energy>
    <i name="e_fr_energy">    -87.27081719 </i>
    <i name="e_wo_entrp">    -87.25027309 </i>
    <i name="e_0_energy">    -87.26568116 </i>
   </energy>
  </scstep>
  <scstep>
   <time name="diag">    0.77    0.77</time>
   <time name="diis">    3.17    3.17</time>
   <time name="orth">    0.08    0.08</time>
   <time name="total">    5.37    5.37</time>
   <energy>
    <i name="e_fr_energy">    -88.29403272 </i>
    <i name="e_wo_entrp">    -88.29032121 </i>
    <i name="e_0_energy">    -88.29310484 </i>
   </energy>
  </scstep>
  <scstep>
   <time name="diag">    0.77    0.77</time>
   <time name="diis">    3.20    3.21</time>
   <time name="orth">    0.08    0.08</time>
   <time name="total">    5.40    5.41</time>
   <energy>
    <i name="e_fr_energy">    -83.34501261 </i>
    <i name="e_wo_entrp">    -83.34640034 </i>
    <i name="e_0_energy">    -83.34535954 </i>
   </energy>
  </scstep>
  <scstep>
   <time name="diag">    0.78    0.78</time>
   <time name="diis">    3.47    3.47</time>
   <time name="orth">    0.08    0.08</time>
   <time name="total">    5.68    5.69</time>
   <energy>
    <i name="e_fr_energy">    -79.44871895 </i>
    <i name="e_wo_entrp">    -79.45584439 </i>
    <i name="e_0_energy">    -79.45050031 </i>
   </energy>
  </scstep>
  <scstep>
   <time name="diag">    0.78    0.78</time>
   <time name="diis">    3.35    3.36</time>
   <time name="orth">    0.08    0.08</time>
   <time name="total">    5.54    5.55</time>
   <energy>
    <i name="e_fr_energy">    -75.17896743 </i>
    <i name="e_wo_entrp">    -75.17392982 </i>
    <i name="e_0_energy">    -75.17770803 </i>
   </energy>
  </scstep>
  <scstep>
   <time name="diag">    0.78    0.77</time>
   <time name="diis">    3.50    3.50</time>
   <time name="orth">    0.08    0.08</time>
   <time name="total">    5.70    5.70</time>
   <energy>
    <i name="e_fr_energy">    -74.80238481 </i>
    <i name="e_wo_entrp">    -74.81641845 </i>
    <i name="e_0_energy">    -74.80589322 </i>
   </energy>
  </scstep>
  <scstep>
   <time name="diag">    0.77    0.77</time>
   <time name="diis">    3.50    3.50</time>
   <time name="orth">    0.08    0.08</time>
   <time name="total">    5.69    5.70</time>
   <energy>
    <i name="e_fr_energy">    -75.08262909 </i>
    <i name="e_wo_entrp">    -75.07429383 </i>
    <i name="e_0_energy">    -75.08054527 </i>
   </energy>
  </scstep>
  <scstep>
   <time name="diag">    0.78    0.78</time>
   <time name="diis">    3.17    3.17</time>
   <time name="orth">    0.08    0.08</time>
   <time name="total">    5.38    5.38</time>
   <energy>
    <i name="e_fr_energy">    -79.39661274 </i>
    <i name="e_wo_entrp">    -79.37992845 </i>
    <i name="e_0_energy">    -79.39244167 </i>
   </energy>
  </scstep>
  <scstep>
   <time name="diag">    0.77    0.77</time>
   <time name="diis">    3.14    3.14</time>
   <time name="orth">    0.08    0.08</time>
   <time name="total">    5.33    5.34</time>
   <energy>
    <i name="e_fr_energy">    -82.71184480 </i>
    <i name="e_wo_entrp">    -82.71458086 </i>
    <i name="e_0_energy">    -82.71252881 </i>
   </energy>
  </scstep>
  <scstep>
   <time name="diag">    0.78    0.77</time>
   <time name="diis">    3.28    3.29</time>
   <time name="orth">    0.08    0.08</time>
   <time name="total">    5.50    5.51</time>
   <energy>
    <i name="e_fr_energy">    -83.83828967 </i>
    <i name="e_wo_entrp">    -83.85172301 </i>
    <i name="e_0_energy">    -83.84164801 </i>
   </energy>
  </scstep>
  <scstep>
   <time name="diag">    0.76    0.76</time>
   <time name="diis">    3.28    3.28</time>
   <time name="orth">    0.08    0.08</time>
   <time name="total">    5.46    5.47</time>
   <energy>
    <i name="e_fr_energy">    -84.81140183 </i>
    <i name="e_wo_entrp">    -84.80938715 </i>
    <i name="e_0_energy">    -84.81089816 </i>
   </energy>
  </scstep>
  <scstep>
   <time name="diag">    0.77    0.77</time>
   <time name="diis">    3.40    3.41</time>
   <time name="orth">    0.08    0.08</time>
   <time name="total">    5.62    5.62</time>
   <energy>
    <i name="e_fr_energy">    -85.37915573 </i>
    <i name="e_wo_entrp">    -85.38300884 </i>
    <i name="e_0_energy">    -85.38011900 </i>
   </energy>
  </scstep>
  <scstep>
   <time name="diag">    0.77    0.78</time>
   <time name="diis">    3.47    3.48</time>
   <time name="orth">    0.08    0.08</time>
   <time name="total">    5.69    5.70</time>
   <energy>
    <i name="e_fr_energy">    -85.80289827 </i>
    <i name="e_wo_entrp">    -85.81376716 </i>
    <i name="e_0_energy">    -85.80561549 </i>
   </energy>
  </scstep>
  <scstep>
   <time name="diag">    0.78    0.78</time>
   <time name="diis">    3.12    3.12</time>
   <time name="orth">    0.08    0.08</time>
   <time name="total">    5.34    5.35</time>
   <energy>
    <i name="e_fr_energy">    -85.11372254 </i>
    <i name="e_wo_entrp">    -85.10100731 </i>
    <i name="e_0_energy">    -85.11054373 </i>
   </energy>
  </scstep>
  <scstep>
   <time name="diag">    0.78    0.78</time>
   <time name="diis">    3.62    3.63</time>
   <time name="orth">    0.08    0.08</time>
   <time name="total">    5.84    5.85</time>
   <energy>
    <i name="e_fr_energy">    -85.01678089 </i>
    <i name="e_wo_entrp">    -85.00985736 </i>
    <i name="e_0_energy">    -85.01505001 </i>
   </energy>
  </scstep>
  <scstep>
   <time name="diag">    0.77    0.78</time>
   <time name="diis">    3.06    3.06</time>
   <time name="orth">    0.08    0.08</time>
   <time name="total">    5.28    5.28</time>
   <energy>
    <i name="e_fr_energy">    -86.34916324 </i>
    <i name="e_wo_entrp">    -86.33915645 </i>
    <i name="e_0_energy">    -86.34666154 </i>
   </energy>
  </scstep>
  <scstep>
   <time name="diag">    0.77    0.77</time>
   <time name="diis">    3.31    3.31</time>
   <time name="orth">    0.08    0.08</time>
   <time name="total">    5.53    5.54</time>
   <energy>
    <i name="e_fr_energy">    -86.87860271 </i>
    <i name="e_wo_entrp">    -86.86565147 </i>
    <i name="e_0_energy">    -86.87536490 </i>
   </energy>
  </scstep>
  <scstep>
   <time name="diag">    0.78    0.78</time>
   <time name="diis">    3.41    3.41</time>
   <time name="orth">    0.08    0.08</time>
   <time name="total">    5.64    5.65</time>
   <energy>
    <i name="e_fr_energy">    -87.12504798 </i>
    <i name="e_wo_entrp">    -87.10652518 </i>
    <i name="e_0_energy">    -87.12041728 </i>
   </energy>
  </scstep>
  <scstep>
   <time name="diag">    0.78    0.78</time>
   <time name="diis">    3.38    3.39</time>
   <time name="orth">    0.08    0.08</time>
   <time name="total">    5.64    5.64</time>
   <energy>
    <i name="e_fr_energy">    -87.18991765 </i>
    <i name="e_wo_entrp">    -87.17079902 </i>
    <i name="e_0_energy">    -87.18513800 </i>
   </energy>
  </scstep>
  <scstep>
   <time name="diag">    0.76    0.76</time>
   <time name="diis">    3.60    3.61</time>
   <time name="orth">    0.08    0.08</time>
   <time name="total">    5.83    5.83</time>
   <energy>
    <i name="e_fr_energy">    -87.17162133 </i>
    <i name="e_wo_entrp">    -87.15675673 </i>
    <i name="e_0_energy">    -87.16790518 </i>
   </energy>
  </scstep>
  <scstep>
   <time name="diag">    0.77    0.77</time>
   <time name="diis">    3.82    3.83</time>
   <time name="orth">    0.08    0.08</time>
   <time name="total">    6.05    6.06</time>
   <energy>
    <i name="e_fr_energy">    -87.18211214 </i>
    <i name="e_wo_entrp">    -87.16757704 </i>
    <i name="e_0_energy">    -87.17847836 </i>
   </energy>
  </scstep>
  <scstep>
   <time name="diag">    0.78    0.78</time>
   <time name="diis">    3.22    3.22</time>
   <time name="orth">    0.08    0.08</time>
   <time name="total">    5.48    5.48</time>
   <energy>
    <i name="e_fr_energy">    -87.21964114 </i>
    <i name="e_wo_entrp">    -87.20381750 </i>
    <i name="e_0_energy">    -87.21568523 </i>
   </energy>
  </scstep>
  <scstep>
   <time name="diag">    0.78    0.78</time>
   <time name="diis">    3.31    3.32</time>
   <time name="orth">    0.08    0.08</time>
   <time name="total">    5.58    5.59</time>
   <energy>
    <i name="e_fr_energy">    -87.26518677 </i>
    <i name="e_wo_entrp">    -87.24645607 </i>
    <i name="e_0_energy">    -87.26050410 </i>
   </energy>
  </scstep>
  <scstep>
   <time name="diag">    0.77    0.77</time>
   <time name="diis">    3.27    3.28</time>
   <time name="orth">    0.08    0.08</time>
   <time name="total">    5.52    5.53</time>
   <energy>
    <i name="e_fr_energy">    -87.19185699 </i>
    <i name="e_wo_entrp">    -87.17895546 </i>
    <i name="e_0_energy">    -87.18863161 </i>
   </energy>
  </scstep>
  <scstep>
   <time name="diag">    0.77    0.77</time>
   <time name="diis">    3.65    3.65</time>
   <time name="orth">    0.08    0.08</time>
   <time name="total">    5.88    5.89</time>
   <energy>
    <i name="e_fr_energy">    -87.14960439 </i>
    <i name="e_wo_entrp">    -87.13939442 </i>
    <i name="e_0_energy">    -87.14705190 </i>
   </energy>
  </scstep>
  <scstep>
   <time name="diag">    0.76    0.76</time>
   <time name="diis">    3.41    3.41</time>
   <time name="orth">    0.08    0.08</time>
   <time name="total">    5.65    5.65</time>
   <energy>
    <i name="e_fr_energy">    -87.15320887 </i>
    <i name="e_wo_entrp">    -87.14294792 </i>
    <i name="e_0_energy">    -87.15064363 </i>
   </energy>
  </scstep>
  <scstep>
   <time name="diag">    0.78    0.78</time>
   <time name="diis">    2.74    2.75</time>
   <time name="orth">    0.08    0.08</time>
   <time name="total">    5.02    5.03</time>
   <energy>
    <i name="e_fr_energy">    -87.17118119 </i>
    <i name="e_wo_entrp">    -87.16026073 </i>
    <i name="e_0_energy">    -87.16845108 </i>
   </energy>
  </scstep>
  <scstep>
   <time name="diag">    0.78    0.77</time>
   <time name="diis">    2.22    2.23</time>
   <time name="orth">    0.08    0.08</time>
   <time name="total">    4.50    4.51</time>
   <energy>
    <i name="e_fr_energy">    -87.17350950 </i>
    <i name="e_wo_entrp">    -87.16243615 </i>
    <i name="e_0_energy">    -87.17074116 </i>
   </energy>
  </scstep>
  <scstep>
   <time name="diag">    0.77    0.77</time>
   <time name="diis">    2.10    2.10</time>
   <time name="orth">    0.08    0.08</time>
   <time name="total">    4.37    4.37</time>
   <energy>
    <i name="e_fr_energy">    -87.17158834 </i>
    <i name="e_wo_entrp">    -87.16051438 </i>
    <i name="e_0_energy">    -87.16881985 </i>
   </energy>
  </scstep>
  <scstep>
   <time name="diag">    0.77    0.77</time>
   <time name="diis">    2.10    2.10</time>
   <time name="orth">    0.08    0.08</time>
   <time name="total">    4.35    4.36</time>
   <energy>
    <i name="e_fr_energy">    -87.16738948 </i>
    <i name="e_wo_entrp">    -87.15647634 </i>
    <i name="e_0_energy">    -87.16466120 </i>
   </energy>
  </scstep>
  <scstep>
   <time name="diag">    0.77    0.77</time>
   <time name="diis">    3.12    3.12</time>
   <time name="orth">    0.08    0.08</time>
   <time name="total">    5.38    5.39</time>
   <energy>
    <i name="e_fr_energy">    -87.20581258 </i>
    <i name="e_wo_entrp">    -87.19389158 </i>
    <i name="e_0_energy">    -87.20283233 </i>
   </energy>
  </scstep>
  <scstep>
   <time name="diag">    0.78    0.78</time>
   <time name="diis">    3.33    3.33</time>
   <time name="orth">    0.08    0.08</time>
   <time name="total">    5.64    5.64</time>
   <energy>
    <i name="e_fr_energy">    -87.41919277 </i>
    <i name="e_wo_entrp">    -87.39819880 </i>
    <i name="e_0_energy">    -87.41394428 </i>
   </energy>
  </scstep>
  <scstep>
   <time name="diag">    0.78    0.77</time>
   <time name="diis">    3.44    3.45</time>
   <time name="orth">    0.08    0.08</time>
   <time name="total">    5.74    5.74</time>
   <energy>
    <i name="e_fr_energy">    -87.58015221 </i>
    <i name="e_wo_entrp">    -87.56874009 </i>
    <i name="e_0_energy">    -87.57729918 </i>
   </energy>
  </scstep>
  <scstep>
   <time name="diag">    0.78    0.78</time>
   <time name="diis">    3.93    3.94</time>
   <time name="orth">    0.08    0.08</time>
   <time name="total">    6.23    6.24</time>
   <energy>
    <i name="e_fr_energy">    -87.58758603 </i>
    <i name="e_wo_entrp">    -87.57645564 </i>
    <i name="e_0_energy">    -87.58480344 </i>
   </energy>
  </scstep>
  <scstep>
   <time name="diag">    0.78    0.77</time>
   <time name="diis">    3.24    3.24</time>
   <time name="orth">    0.08    0.08</time>
   <time name="total">    5.54    5.54</time>
   <energy>
    <i name="e_fr_energy">    -87.56840914 </i>
    <i name="e_wo_entrp">    -87.55403581 </i>
    <i name="e_0_energy">    -87.56481581 </i>
   </energy>
  </scstep>
  <scstep>
   <time name="diag">    0.76    0.77</time>
   <time name="diis">    3.44    3.44</time>
   <time name="orth">    0.08    0.08</time>
   <time name="total">    5.73    5.74</time>
   <energy>
    <i name="e_fr_energy">    -87.57107482 </i>
    <i name="e_wo_entrp">    -87.55676650 </i>
    <i name="e_0_energy">    -87.56749774 </i>
   </energy>
  </scstep>
  <scstep>
   <time name="diag">    0.78    0.78</time>
   <time name="diis">    3.43    3.43</time>
   <time name="orth">    0.08    0.08</time>
   <time name="total">    5.74    5.75</time>
   <energy>
    <i name="e_fr_energy">    -87.61362032 </i>
    <i name="e_wo_entrp">    -87.60540187 </i>
    <i name="e_0_energy">    -87.61156571 </i>
   </energy>
  </scstep>
  <scstep>
   <time name="diag">    0.78    0.78</time>
   <time name="diis">    3.46    3.46</time>
   <time name="orth">    0.08    0.08</time>
   <time name="total">    5.78    5.79</time>
   <energy>
    <i name="e_fr_energy">    -87.65590360 </i>
    <i name="e_wo_entrp">    -87.65314381 </i>
    <i name="e_0_energy">    -87.65521365 </i>
   </energy>
  </scstep>
  <scstep>
   <time name="diag">    0.78    0.77</time>
   <time name="diis">    3.74    3.75</time>
   <time name="orth">    0.08    0.08</time>
   <time name="total">    6.05    6.06</time>
   <energy>
    <i name="e_fr_energy">    -87.66755824 </i>
    <i name="e_wo_entrp">    -87.66374015 </i>
    <i name="e_0_energy">    -87.66660371 </i>
   </energy>
  </scstep>
  <scstep>
   <time name="diag">    0.76    0.77</time>
   <time name="diis">    3.61    3.61</time>
   <time name="orth">    0.08    0.08</time>
   <time name="total">    5.91    5.92</time>
   <energy>
    <i name="e_fr_energy">    -87.67002691 </i>
    <i name="e_wo_entrp">    -87.66452955 </i>
    <i name="e_0_energy">    -87.66865257 </i>
   </energy>
  </scstep>
  <scstep>
   <time name="diag">    0.78    0.78</time>
   <time name="diis">    3.48    3.48</time>
   <time name="orth">    0.08    0.08</time>
   <time name="total">    5.82    5.83</time>
   <energy>
    <i name="e_fr_energy">    -87.67011531 </i>
    <i name="e_wo_entrp">    -87.66435144 </i>
    <i name="e_0_energy">    -87.66867434 </i>
   </energy>
  </scstep>
  <scstep>
   <time name="diag">    0.77    0.77</time>
   <time name="diis">    3.18    3.18</time>
   <time name="orth">    0.08    0.08</time>
   <time name="total">    5.52    5.52</time>
   <energy>
    <i name="e_fr_energy">    -87.67077701 </i>
    <i name="e_wo_entrp">    -87.66427782 </i>
    <i name="e_0_energy">    -87.66915221 </i>
   </energy>
  </scstep>
  <scstep>
   <time name="diag">    0.78    0.78</time>
   <time name="diis">    3.26    3.27</time>
   <time name="orth">    0.08    0.08</time>
   <time name="total">    5.59    5.60</time>
   <energy>
    <i name="e_fr_energy">    -87.65954650 </i>
    <i name="e_wo_entrp">    -87.64311036 </i>
    <i name="e_0_energy">    -87.65543747 </i>
   </energy>
  </scstep>
  <scstep>
   <time name="diag">    0.77    0.77</time>
   <time name="diis">    3.49    3.50</time>
   <time name="orth">    0.08    0.08</time>
   <time name="total">    5.81    5.82</time>
   <energy>
    <i name="e_fr_energy">    -87.66225014 </i>
    <i name="e_wo_entrp">    -87.64718151 </i>
    <i name="e_0_energy">    -87.65848299 </i>
   </energy>
  </scstep>
  <scstep>
   <time name="diag">    0.78    0.78</time>
   <time name="diis">    3.45    3.45</time>
   <time name="orth">    0.08    0.08</time>
   <time name="total">    5.79    5.80</time>
   <energy>
    <i name="e_fr_energy">    -87.66346354 </i>
    <i name="e_wo_entrp">    -87.64576983 </i>
    <i name="e_0_energy">    -87.65904011 </i>
   </energy>
  </scstep>
  <scstep>
   <time name="diag">    0.77    0.78</time>
   <time name="diis">    3.34    3.34</time>
   <time name="orth">    0.08    0.08</time>
   <time name="total">    5.67    5.68</time>
   <energy>
    <i name="e_fr_energy">    -87.66489127 </i>
    <i name="e_wo_entrp">    -87.64587675 </i>
    <i name="e_0_energy">    -87.66013764 </i>
   </energy>
  </scstep>
  <scstep>
   <time name="diag">    0.77    0.77</time>
   <time name="diis">    3.32    3.33</time>
   <time name="orth">    0.08    0.08</time>
   <time name="total">    5.66    5.66</time>
   <energy>
    <i name="e_fr_energy">    -87.67167428 </i>
    <i name="e_wo_entrp">    -87.65520713 </i>
    <i name="e_0_energy">    -87.66755749 </i>
   </energy>
  </scstep>
  <scstep>
   <time name="diag">    0.77    0.77</time>
   <time name="diis">    3.29    3.29</time>
   <time name="orth">    0.08    0.08</time>
   <time name="total">    5.03    5.04</time>
   <energy>
    <i name="alphaZ">    208.58239324 </i>
    <i name="ewald">  10655.31659560 </i>
    <i name="hartreedc"> -17733.03300948 </i>
    <i name="XCdc">     47.37532937 </i>
    <i name="pawpsdc">   8056.72448241 </i>
    <i name="pawaedc">  -8162.84550952 </i>
    <i name="eentropy">     -0.01420371 </i>
    <i name="bandstr">   -291.31874095 </i>
    <i name="atom">   7131.53793727 </i>
    <i name="e_fr_energy">    -87.67472578 </i>
    <i name="e_wo_entrp">    -87.66052207 </i>
    <i name="e_0_energy">    -87.67117486 </i>
   </energy>
  </scstep>
  <structure>
   <crystal>
    <varray name="basis" >
     <v>       5.64000000       0.00000000       0.00000000 </v>
     <v>       0.00000000       5.64000000       0.00000000 </v>
     <v>       0.00000000       0.00000000      15.00000000 </v>
    </varray>
    <i name="volume">    477.14400000 </i>
    <varray name="rec_basis" >
     <v>       0.17730496       0.00000000       0.00000000 </v>
     <v>       0.00000000       0.17730496       0.00000000 </v>
     <v>       0.00000000       0.00000000       0.06666667 </v>
    </varray>
   </crystal>
   <varray name="positions" >
    <v>       0.00000000       0.00000000       0.00000000 </v>
    <v>       0.50000000       0.00000000       0.00000000 </v>
    <v>       0.00000000       0.50000000       0.00000000 </v>
    <v>       0.50000000       0.50000000       0.00000000 </v>
    <v>       0.25000000       0.25000000       0.09400000 </v>
    <v>       0.75000000       0.25000000       0.09400000 </v>
    <v>       0.25000000       0.75000000       0.09400000 </v>
    <v>       0.75000000       0.75000000       0.09400000 </v>
    <v>       0.00000000       0.00000000       0.18800000 </v>
    <v>       0.50000000       0.00000000       0.18800000 </v>
    <v>       0.00000000       0.50000000       0.18800000 </v>
    <v>       0.50000000       0.50000000       0.18800000 </v>
   </varray>
  </structure>
  <varray name="forces" >
   <v>      -0.00000000      -0.00000000       0.16671937 </v>
   <v>       0.00000000       0.00000000       0.16671937 </v>
   <v>      -0.00000000       0.00000000       0.16671937 </v>
   <v>      -0.00000000       0.00000000       0.16671937 </v>
   <v>      -0.00000000       0.00000000      -0.02856060 </v>
   <v>      -0.00000000      -0.00000000      -0.02856060 </v>
   <v>       0.00000000      -0.00000000      -0.02856060 </v>
   <v>      -0.00000000       0.00000000      -0.02856060 </v>
   <v>       0.00000000      -0.00000000      -0.13815877 </v>
   <v>       0.00000000       0.00000000      -0.13815877 </v>
   <v>       0.00000000      -0.00000000      -0.13815877 </v>
   <v>       0.00000000       0.00000000      -0.13815877 </v>
  </varray>
  <varray name="stress" >
   <v>     -53.51434658       0.00000000       0.00000000 </v>
   <v>       0.00000000     -53.51434658       0.00000000 </v>
   <v>       0.00000000       0.00000000     -12.35267045 </v>
  </varray>
  <energy>
   <i name="e_fr_energy">    -87.67472578 </i>
   <i name="e_wo_entrp">    -87.67117486 </i>
   <i name="e_0_energy">     -0.01420371 </i>
  </energy>
  <time name="totalsc">  336.28  336.73</time>
 </calculation>
 <calculation>
  <scstep>
   <time name="dav">    4.32    4.33</time>
   <time name="total">    5.65    5.66</time>
   <energy>
    <i name="alphaZ">    208.58239324 </i>
    <i name="ewald">  10680.92746696 </i>
    <i name="hartreedc"> -17756.78198141 </i>
    <i name="XCdc">     47.29592104 </i>
    <i name="pawpsdc">   8054.82286576 </i>
    <i name="pawaedc">  -8160.77866770 </i>
    <i name="eentropy">      0.01274554 </i>
    <i name="bandstr">   -293.95471538 </i>
    <i name="atom">   7131.53793727 </i>
    <i name="e_fr_energy">    -88.33603467 </i>
    <i name="e_wo_entrp">    -88.34878022 </i>
    <i name="e_0_energy">    -88.33922106 </i>
   </energy>
  </scstep>
  <scstep>
   <time name="diag">    0.76    0.76</time>
   <time name="diis">    3.12    3.13</time>
   <time name="orth">    0.08    0.08</time>
   <time name="total">    5.30    5.31</time>
   <energy>
    <i name="e_fr_energy">    -88.49386440 </i>
    <i name="e_wo_entrp">    -88.50202350 </i>
    <i name="e_0_energy">    -88.49590417 </i>
   </energy>
  </scstep>
  <scstep>
   <time name="diag">    0.76    0.76</time>
   <time name="diis">    3.13    3.13</time>
   <time name="orth">    0.08    0.08</time>
   <time name="total">    5.30    5.30</time>
   <energy>
    <i name="e_fr_energy">    -88.43361688 </i>
    <i name="e_wo_entrp">    -88.44107763 </i>
    <i name="e_0_energy">    -88.43548207 </i>
   </energy>
  </scstep>
  <scstep>
   <time name="diag">    0.78    0.78</time>
   <time name="diis">    3.21    3.21</time>
   <time name="orth">    0.08    0.08</time>
   <time name="total">    5.41    5.42</time>
   <energy>
    <i name="e_fr_energy">    -88.36685391 </i>
    <i name="e_wo_entrp">    -88.38124604 </i>
    <i name="e_0_energy">    -88.37045194 </i>
   </energy>
  </scstep>
  <scstep>
   <time name="diag">    0.76    0.76</time>
   <time name="diis">    3.12    3.12</time>
   <time name="orth">    0.08    0.08</time>
   <time name="total">    5.30    5.31</time>
   <energy>
    <i name="e_fr_energy">    -88.27746954 </i>
    <i name="e_wo_entrp">    -88.28737004 </i>
    <i name="e_0_energy">    -88.27994467 </i>
   </energy>
  </scstep>
  <scstep>
   <time name="diag">    0.77    0.77</time>
   <time name="diis">    3.38    3.38</time>
   <time name="orth">    0.08    0.08</time>
   <time name="total">    5.58    5.58</time>
   <energy>
    <i name="e_fr_energy">    -88.30925439 </i>
    <i name="e_wo_entrp">    -88.32071000 </i>
    <i name="e_0_energy">    -88.31211830 </i>
   </energy>
  </scstep>
  <scstep>
   <time name="diag">    0.76    0.76</time>
   <time name="diis">    3.11    3.12</time>
   <time name="orth">    0.08    0.08</time>
   <time name="total">    5.30    5.30</time>
   <energy>
    <i name="e_fr_energy">    -88.30538617 </i>
    <i name="e_wo_entrp">    -88.31580259 </i>
    <i name="e_0_energy">    -88.30799028 </i>
   </energy>
  </scstep>
  <scstep>
   <time name="diag">    0.78    0.78</time>
   <time name="diis">    3.51    3.51</time>
   <time name="orth">    0.08    0.08</time>
   <time name="total">    5.70    5.71</time>
   <energy>
    <i name="e_fr_energy">    -88.37577832 </i>
    <i name="e_wo_entrp">    -88.38612129 </i>
    <i name="e_0_energy">    -88.37836406 </i>
   </energy>
  </scstep>
  <scstep>
   <time name="diag">    0.77    0.77</time>
   <time name="diis">    3.23    3.23</time>
   <time name="orth">    0.08    0.08</time>
   <time name="total">    5.43    5.44</time>
   <energy>
    <i name="e_fr_energy">    -88.42525464 </i>
    <i name="e_wo_entrp">    -88.43579979 </i>
    <i name="e_0_energy">    -88.42789093 </i>
   </energy>
  </scstep>
  <scstep>
   <time name="diag">    0.78    0.78</time>
   <time name="diis">    3.56    3.56</time>
   <time name="orth">    0.08    0.08</time>
   <time name="total">    5.76    5.76</time>
   <energy>
    <i name="e_fr_energy">    -88.44654184 </i>
    <i name="e_wo_entrp">    -88.45724188 </i>
    <i name="e_0_energy">    -88.44921685 </i>
   </energy>
  </scstep>
  <scstep>
   <time name="diag">    0.76    0.76</time>
   <time name="diis">    3.02    3.02</time>
   <time name="orth">    0.08    0.08</time>
   <time name="total">    5.20    5.21</time>
   <energy>
    <i name="e_fr_energy">    -88.45451712 </i>
    <i name="e_wo_entrp">    -88.46534574 </i>
    <i name="e_0_energy">    -88.45722428 </i>
   </energy>
  </scstep>
  <scstep>
   <time name="diag">    0.77    0.77</time>
   <time name="diis">    2.70    2.71</time>
   <time name="orth">    0.08    0.08</time>
   <time name="total">    4.89    4.90</time>
   <energy>
    <i name="e_fr_energy">    -88.45407582 </i>
    <i name="e_wo_entrp">    -88.46493608 </i>
    <i name="e_0_energy">    -88.45679088 </i>
   </energy>
  </scstep>
  <scstep>
   <time name="diag">    0.78    0.78</time>
   <time name="diis">    2.20    2.20</time>
   <time name="orth">    0.08    0.08</time>
   <time name="total">    4.41    4.42</time>
   <energy>
    <i name="e_fr_energy">    -88.45464180 </i>
    <i name="e_wo_entrp">    -88.46552710 </i>
    <i name="e_0_energy">    -88.45736313 </i>
   </energy>
  </scstep>
  <scstep>
   <time name="diag">    0.78    0.78</time>
   <time name="diis">    2.02    2.03</time>
   <time name="orth">    0.08    0.08</time>
   <time name="total">    4.25    4.26</time>
   <energy>
    <i name="e_fr_energy">    -88.45548797 </i>
    <i name="e_wo_entrp">    -88.46640114 </i>
    <i name="e_0_energy">    -88.45821626 </i>
   </energy>
  </scstep>
  <scstep>
   <time name="diag">    0.77    0.77</time>
   <time name="diis">    2.01    2.01</time>
   <time name="orth">    0.08    0.08</time>
   <time name="total">    4.23    4.24</time>
   <energy>
    <i name="e_fr_energy">    -88.45593551 </i>
    <i name="e_wo_entrp">    -88.46685654 </i>
    <i name="e_0_energy">    -88.45866577 </i>
   </energy>
  </scstep>
  <scstep>
   <time name="diag">    0.77    0.77</time>
   <time name="diis">    1.84    1.84</time>
   <time name="orth">    0.08    0.08</time>
   <time name="total">    4.06    4.06</time>
   <energy>
    <i name="e_fr_energy">    -88.45616479 </i>
    <i name="e_wo_entrp">    -88.46708349 </i>
    <i name="e_0_energy">    -88.45889446 </i>
   </energy>
  </scstep>
  <scstep>
   <time name="diag">    0.77    0.77</time>
   <time name="diis">    1.83    1.83</time>
   <time name="orth">    0.08    0.08</time>
   <time name="total">    4.04    4.04</time>
   <energy>
    <i name="e_fr_energy">    -88.45633257 </i>
    <i name="e_wo_entrp">    -88.46725720 </i>
    <i name="e_0_energy">    -88.45906373 </i>
   </energy>
  </scstep>
  <scstep>
   <time name="diag">    0.76    0.76</time>
   <time name="diis">    1.89    1.90</time>
   <time name="orth">    0.08    0.08</time>
   <time name="total">    4.07    4.07</time>
   <energy>
    <i name="e_fr_energy">    -88.45654052 </i>
    <i name="e_wo_entrp">    -88.46747379 </i>
    <i name="e_0_energy">    -88.45927384 </i>
   </energy>
  </scstep>
  <scstep>
   <time name="diag">    0.77    0.77</time>
   <time name="diis">    1.86    1.86</time>
   <time name="orth">    0.08    0.08</time>
   <time name="total">    3.59    3.60</time>
   <energy>
    <i name="alphaZ">    208.58239324 </i>
    <i name="ewald">  10680.92746696 </i>
    <i name="hartreedc"> -17757.37048640 </i>
    <i name="XCdc">     49.08581647 </i>
    <i name="pawpsdc">   8100.39327052 </i>
    <i name="pawaedc">  -8207.22773556 </i>
    <i name="eentropy">      0.01093949 </i>
    <i name="bandstr">   -294.39621516 </i>
    <i name="atom">   7131.53793727 </i>
    <i name="e_fr_energy">    -88.45661317 </i>
    <i name="e_wo_entrp">    -88.46755266 </i>
    <i name="e_0_energy">    -88.45934804 </i>
   </energy>
  </scstep>
  <structure>
   <crystal>
    <varray name="basis" >
     <v>       5.64000000       0.00000000       0.00000000 </v>
     <v>       0.00000000       5.64000000       0.00000000 </v>
     <v>       0.00000000       0.00000000      15.00000000 </v>
    </varray>
    <i name="volume">    477.14400000 </i>
    <varray name="rec_basis" >
     <v>       0.17730496       0.00000000       0.00000000 </v>
     <v>       0.00000000       0.17730496       0.00000000 </v>
     <v>       0.00000000       0.00000000       0.06666667 </v>
    </varray>
   </crystal>
   <varray name="positions" >
    <v>       0.00000000       0.00000000       0.00000000 </v>
    <v>       0.50000000       0.00000000       0.00000000 </v>
    <v>       0.00000000       0.50000000       0.00000000 </v>
    <v>       0.50000000       0.50000000       0.00000000 </v>
    <v>       0.25000000       0.25000000       0.09400000 </v>
    <v>       0.75000000       0.25000000       0.09400000 </v>
    <v>       0.25000000       0.75000000       0.09400000 </v>
    <v>       0.75000000       0.75000000       0.09400000 </v>
    <v>       0.00000000      -0.00000000       0.18755566 </v>
    <v>       0.50000000       0.00000000       0.18755566 </v>
    <v>       0.00000000       0.50000000       0.18755566 </v>
    <v>       0.50000000       0.50000000       0.18755566 </v>
   </varray>
  </structure>
  <varray name="forces" >
   <v>       0.00000000      -0.00000000       0.04676662 </v>
   <v>      -0.00000000      -0.00000000       0.04676662 </v>
   <v>      -0.00000000       0.00000000       0.04676662 </v>
   <v>      -0.00000000       0.00000000       0.04676662 </v>
   <v>      -0.00000000      -0.00000000      -0.01967609 </v>
   <v>       0.00000000      -0.00000000      -0.01967609 </v>
   <v>       0.00000000      -0.00000000      -0.01967609 </v>
   <v>       0.00000000      -0.00000000      -0.01967609 </v>
   <v>      -0.00000000       0.00000000      -0.02709052 </v>
   <v>      -0.00000000       0.00000000      -0.02709052 </v>
   <v>      -0.00000000      -0.00000000      -0.02709052 </v>
   <v>      -0.00000000      -0.00000000      -0.02709052 </v>
  </varray>
  <varray name="stress" >
   <v>     -45.13225470       0.00000000       0.00000000 </v>
   <v>      -0.00000000     -45.13225470       0.00000000 </v>
   <v>       0.00000000       0.00000000      -2.46061668 </v>
  </varray>
  <energy>
   <i name="e_fr_energy">    -88.45661317 </i>
   <i name="e_wo_entrp">    -88.45934804 </i>
   <i name="e_0_energy">      0.01093949 </i>
  </energy>
  <time name="totalsc">  101.97  102.10</time>
 </calculation>
 <calculation>
  <scstep>
   <time name="dav">    3.18    3.18</time>
   <time name="total">    4.53    4.54</time>
   <energy>
    <i name="alphaZ">    208.58239324 </i>
    <i name="ewald">  10680.93141837 </i>
    <i name="hartreedc"> -17757.36755187 </i>
    <i name="XCdc">     49.08652902 </i>
    <i name="pawpsdc">   8100.42207548 </i>
    <i name="pawaedc">  -8207.25578644 </i>
    <i name="eentropy">      0.01093762 </i>
    <i name="bandstr">   -294.40488919 </i>
    <i name="atom">   7131.53793727 </i>
    <i name="e_fr_energy">    -88.45693650 </i>
    <i name="e_wo_entrp">    -88.46787412 </i>
    <i name="e_0_energy">    -88.45967091 </i>
   </energy>
  </scstep>
  <scstep>
   <time name="diag">    0.77    0.78</time>
   <time name="diis">    1.80    1.80</time>
   <time name="orth">    0.08    0.08</time>
   <time name="total">    4.00    4.00</time>
   <energy>
    <i name="e_fr_energy">    -88.45699304 </i>
    <i name="e_wo_entrp">    -88.46793745 </i>
    <i name="e_0_energy">    -88.45972914 </i>
   </energy>
  </scstep>
  <scstep>
   <time name="diag">    0.78    0.78</time>
   <time name="diis">    1.74    1.75</time>
   <time name="orth">    0.08    0.08</time>
   <time name="total">    3.95    3.96</time>
   <energy>
    <i name="e_fr_energy">    -88.45694729 </i>
    <i name="e_wo_entrp">    -88.46789260 </i>
    <i name="e_0_energy">    -88.45968361 </i>
   </energy>
  </scstep>
  <scstep>
   <time name="diag">    0.77    0.77</time>
   <time name="diis">    1.70    1.70</time>
   <time name="orth">    0.08    0.08</time>
   <time name="total">    3.44    3.44</time>
   <energy>
    <i name="alphaZ">    208.58239324 </i>
    <i name="ewald">  10680.93141837 </i>
    <i name="hartreedc"> -17757.35477652 </i>
    <i name="XCdc">     49.08589584 </i>
    <i name="pawpsdc">   8100.39419227 </i>
    <i name="pawaedc">  -8207.22536935 </i>
    <i name="eentropy">      0.01093863 </i>
    <i name="bandstr">   -294.41957132 </i>
    <i name="atom">   7131.53793727 </i>
    <i name="e_fr_energy">    -88.45694157 </i>
    <i name="e_wo_entrp">    -88.46788020 </i>
    <i name="e_0_energy">    -88.45967622 </i>
   </energy>
  </scstep>
  <structure>
   <crystal>
    <varray name="basis" >
     <v>       5.64000000       0.00000000       0.00000000 </v>
     <v>       0.00000000       5.64000000       0.00000000 </v>
     <v>       0.00000000       0.00000000      15.00000000 </v>
    </varray>
    <i name="volume">    477.14400000 </i>
    <varray name="rec_basis" >
     <v>       0.17730496       0.00000000       0.00000000 </v>
     <v>       0.00000000       0.17730496       0.00000000 </v>
     <v>       0.00000000       0.00000000       0.06666667 </v>
    </varray>
   </crystal>
   <varray name="positions" >
    <v>       0.00000000       0.00000000       0.00000000 </v>
    <v>       0.50000000       0.00000000       0.00000000 </v>
    <v>       0.00000000       0.50000000       0.00000000 </v>
    <v>       0.50000000       0.50000000       0.00000000 </v>
    <v>       0.25000000       0.25000000       0.09400000 </v>
    <v>       0.75000000       0.25000000       0.09400000 </v>
    <v>       0.25000000       0.75000000       0.09400000 </v>
    <v>       0.75000000       0.75000000       0.09400000 </v>
    <v>       0.00000000      -0.00000000       0.18755559 </v>
    <v>       0.50000000       0.00000000       0.18755559 </v>
    <v>       0.00000000       0.50000000       0.18755559 </v>
    <v>       0.50000000       0.50000000       0.18755559 </v>
   </varray>
  </structure>
  <varray name="forces" >
   <v>      -0.00000000      -0.00000000       0.04588716 </v>
   <v>       0.00000000       0.00000000       0.04588716 </v>
   <v>      -0.00000000       0.00000000       0.04588716 </v>
   <v>      -0.00000000       0.00000000       0.04588716 </v>
   <v>       0.00000000      -0.00000000      -0.01760061 </v>
   <v>      -0.00000000      -0.00000000      -0.01760061 </v>
   <v>       0.00000000       0.00000000      -0.01760061 </v>
   <v>      -0.00000000       0.00000000      -0.01760061 </v>
   <v>       0.00000000      -0.00000000      -0.02828655 </v>
   <v>       0.00000000      -0.00000000      -0.02828655 </v>
   <v>       0.00000000      -0.00000000      -0.02828655 </v>
   <v>       0.00000000      -0.00000000      -0.02828655 </v>
  </varray>
  <varray name="stress" >
   <v>     -45.18987706       0.00000000       0.00000000 </v>
   <v>      -0.00000000     -45.18987706       0.00000000 </v>
   <v>       0.00000000       0.00000000      -2.46119104 </v>
  </varray>
  <energy>
   <i name="e_fr_energy">    -88.45694157 </i>
   <i name="e_wo_entrp">    -88.45967622 </i>
   <i name="e_0_energy">      0.01093863 </i>
  </energy>
  <time name="totalsc">   24.34   24.37</time>
 </calculation>
 <calculation>
  <scstep>
   <time name="dav">    2.82    2.83</time>
   <time name="total">    4.18    4.19</time>
   <energy>
    <i name="alphaZ">    208.58239324 </i>
    <i name="ewald">  10680.93932119 </i>
    <i name="hartreedc"> -17757.36511101 </i>
    <i name="XCdc">     49.08610123 </i>
    <i name="pawpsdc">   8100.38951601 </i>
    <i name="pawaedc">  -8207.22083398 </i>
    <i name="eentropy">      0.01094353 </i>
    <i name="bandstr">   -294.41721258 </i>
    <i name="atom">   7131.53793727 </i>
    <i name="e_fr_energy">    -88.45694509 </i>
    <i name="e_wo_entrp">    -88.46788863 </i>
    <i name="e_0_energy">    -88.45968098 </i>
   </energy>
  </scstep>
  <scstep>
   <time name="diag">    0.77    0.77</time>
   <time name="diis">    1.72    1.72</time>
   <time name="orth">    0.08    0.08</time>
   <time name="total">    3.92    3.93</time>
   <energy>
    <i name="e_fr_energy">    -88.45694823 </i>
    <i name="e_wo_entrp">    -88.46788296 </i>
    <i name="e_0_energy">    -88.45968191 </i>
   </energy>
  </scstep>
  <scstep>
   <time name="diag">    0.77    0.77</time>
   <time name="diis">    1.71    1.71</time>
   <time name="orth">    0.08    0.08</time>
   <time name="total">    3.90    3.91</time>
   <energy>
    <i name="e_fr_energy">    -88.45694728 </i>
    <i name="e_wo_entrp">    -88.46788849 </i>
    <i name="e_0_energy">    -88.45968258 </i>
   </energy>
  </scstep>
  <scstep>
   <time name="diag">    0.77    0.77</time>
   <time name="diis">    1.51    1.51</time>
   <time name="orth">    0.08    0.08</time>
   <time name="total">    3.24    3.25</time>
   <energy>
    <i name="alphaZ">    208.58239324 </i>
    <i name="ewald">  10680.93932119 </i>
    <i name="hartreedc"> -17757.35653622 </i>
    <i name="XCdc">     49.08597157 </i>
    <i name="pawpsdc">   8100.38890724 </i>
    <i name="pawaedc">  -8207.22026000 </i>
    <i name="eentropy">      0.01094192 </i>
    <i name="bandstr">   -294.42562462 </i>
    <i name="atom">   7131.53793727 </i>
    <i name="e_fr_energy">    -88.45694841 </i>
    <i name="e_wo_entrp">    -88.46789033 </i>
    <i name="e_0_energy">    -88.45968389 </i>
   </energy>
  </scstep>
  <structure>
   <crystal>
    <varray name="basis" >
     <v>       5.64000000       0.00000000       0.00000000 </v>
     <v>       0.00000000       5.64000000       0.00000000 </v>
     <v>       0.00000000       0.00000000      15.00000000 </v>
    </varray>
    <i name="volume">    477.14400000 </i>
    <varray name="rec_basis" >
     <v>       0.17730496       0.00000000       0.00000000 </v>
     <v>       0.00000000       0.17730496       0.00000000 </v>
     <v>       0.00000000       0.00000000       0.06666667 </v>
    </varray>
   </crystal>
   <varray name="positions" >
    <v>       0.00000000       0.00000000       0.00000000 </v>
    <v>       0.50000000       0.00000000       0.00000000 </v>
    <v>       0.00000000       0.50000000       0.00000000 </v>
    <v>       0.50000000       0.50000000       0.00000000 </v>
    <v>       0.25000000       0.25000000       0.09400000 </v>
    <v>       0.75000000       0.25000000       0.09400000 </v>
    <v>       0.25000000       0.75000000       0.09400000 </v>
    <v>       0.75000000       0.75000000       0.09400000 </v>
    <v>       0.00000000      -0.00000000       0.18755545 </v>
    <v>       0.50000000       0.00000000       0.18755545 </v>
    <v>       0.00000000       0.50000000       0.18755545 </v>
    <v>       0.50000000       0.50000000       0.18755545 </v>
   </varray>
  </structure>
  <varray name="forces" >
   <v>       0.00000000       0.00000000       0.04544486 </v>
   <v>      -0.00000000      -0.00000000       0.04544486 </v>
   <v>      -0.00000000      -0.00000000       0.04544486 </v>
   <v>      -0.00000000      -0.00000000       0.04544486 </v>
   <v>      -0.00000000      -0.00000000      -0.01760832 </v>
   <v>      -0.00000000       0.00000000      -0.01760832 </v>
   <v>       0.00000000       0.00000000      -0.01760832 </v>
   <v>      -0.00000000       0.00000000      -0.01760832 </v>
   <v>       0.00000000      -0.00000000      -0.02783654 </v>
   <v>       0.00000000       0.00000000      -0.02783654 </v>
   <v>      -0.00000000      -0.00000000      -0.02783654 </v>
   <v>      -0.00000000       0.00000000      -0.02783654 </v>
  </varray>
  <varray name="stress" >
   <v>     -45.21041403       0.00000000       0.00000000 </v>
   <v>       0.00000000     -45.21041403       0.00000000 </v>
   <v>       0.00000000       0.00000000      -2.54985583 </v>
  </varray>
  <energy>
   <i name="e_fr_energy">    -88.45694841 </i>
   <i name="e_wo_entrp">    -88.45968389 </i>
   <i name="e_0_energy">      0.01094192 </i>
  </energy>
  <time name="totalsc">   23.64   23.67</time>
 </calculation>
 <calculation>
  <scstep>
   <time name="dav">    2.58    2.58</time>
   <time name="total">    3.92    3.92</time>
   <energy>
    <i name="alphaZ">    208.58239324 </i>
    <i name="ewald">  10680.95512682 </i>
    <i name="hartreedc"> -17757.36712888 </i>
    <i name="XCdc">     49.08582768 </i>
    <i name="pawpsdc">   8100.38577193 </i>
    <i name="pawaedc">  -8207.21684071 </i>
    <i name="eentropy">      0.01094197 </i>
    <i name="bandstr">   -294.43097989 </i>
    <i name="atom">   7131.53793727 </i>
    <i name="e_fr_energy">    -88.45695056 </i>
    <i name="e_wo_entrp">    -88.46789253 </i>
    <i name="e_0_energy">    -88.45968606 </i>
   </energy>
  </scstep>
  <scstep>
   <time name="diag">    0.78    0.78</time>
   <time name="diis">    1.71    1.71</time>
   <time name="orth">    0.08    0.08</time>
   <time name="total">    3.92    3.92</time>
   <energy>
    <i name="e_fr_energy">    -88.45696060 </i>
    <i name="e_wo_entrp">    -88.46790154 </i>
    <i name="e_0_energy">    -88.45969584 </i>
   </energy>
  </scstep>
  <scstep>
   <time name="diag">    0.78    0.78</time>
   <time name="diis">    1.72    1.72</time>
   <time name="orth">    0.08    0.08</time>
   <time name="total">    3.92    3.92</time>
   <energy>
    <i name="e_fr_energy">    -88.45695120 </i>
    <i name="e_wo_entrp">    -88.46789318 </i>
    <i name="e_0_energy">    -88.45968669 </i>
   </energy>
  </scstep>
  <scstep>
   <time name="diag">    0.78    0.78</time>
   <time name="diis">    1.36    1.37</time>
   <time name="orth">    0.08    0.08</time>
   <time name="total">    3.12    3.13</time>
   <energy>
    <i name="alphaZ">    208.58239324 </i>
    <i name="ewald">  10680.95512682 </i>
    <i name="hartreedc"> -17757.35413134 </i>
    <i name="XCdc">     49.08557947 </i>
    <i name="pawpsdc">   8100.37164675 </i>
    <i name="pawaedc">  -8207.20226635 </i>
    <i name="eentropy">      0.01094268 </i>
    <i name="bandstr">   -294.44418263 </i>
    <i name="atom">   7131.53793727 </i>
    <i name="e_fr_energy">    -88.45695408 </i>
    <i name="e_wo_entrp">    -88.46789676 </i>
    <i name="e_0_energy">    -88.45968975 </i>
   </energy>
  </scstep>
  <structure>
   <crystal>
    <varray name="basis" >
     <v>       5.64000000       0.00000000       0.00000000 </v>
     <v>       0.00000000       5.64000000       0.00000000 </v>
     <v>       0.00000000       0.00000000      15.00000000 </v>
    </varray>
    <i name="volume">    477.14400000 </i>
    <varray name="rec_basis" >
     <v>       0.17730496       0.00000000       0.00000000 </v>
     <v>       0.00000000       0.17730496       0.00000000 </v>
     <v>       0.00000000       0.00000000       0.06666667 </v>
    </varray>
   </crystal>
   <varray name="positions" >
    <v>       0.00000000       0.00000000       0.00000000 </v>
    <v>       0.50000000       0.00000000       0.00000000 </v>
    <v>       0.00000000       0.50000000       0.00000000 </v>
    <v>       0.50000000       0.50000000       0.00000000 </v>
    <v>       0.25000000       0.25000000       0.09400000 </v>
    <v>       0.75000000       0.25000000       0.09400000 </v>
    <v>       0.25000000       0.75000000       0.09400000 </v>
    <v>       0.75000000       0.75000000       0.09400000 </v>
    <v>       0.00000000      -0.00000000       0.18755518 </v>
    <v>       0.50000000       0.00000000       0.18755518 </v>
    <v>       0.00000000       0.50000000       0.18755518 </v>
    <v>       0.50000000       0.50000000       0.18755518 </v>
   </varray>
  </structure>
  <varray name="forces" >
   <v>       0.00000000       0.00000000       0.04511183 </v>
   <v>      -0.00000000       0.00000000       0.04511183 </v>
   <v>       0.00000000      -0.00000000       0.04511183 </v>
   <v>       0.00000000      -0.00000000       0.04511183 </v>
   <v>      -0.00000000      -0.00000000      -0.01718243 </v>
   <v>      -0.00000000      -0.00000000      -0.01718243 </v>
   <v>      -0.00000000       0.00000000      -0.01718243 </v>
   <v>       0.00000000       0.00000000      -0.01718243 </v>
   <v>       0.00000000       0.00000000      -0.02792940 </v>
   <v>      -0.00000000       0.00000000      -0.02792940 </v>
   <v>       0.00000000       0.00000000      -0.02792940 </v>
   <v>       0.00000000      -0.00000000      -0.02792940 </v>
  </varray>
  <varray name="stress" >
   <v>     -45.19858091      -0.00000000       0.00000000 </v>
   <v>       0.00000000     -45.19858091      -0.00000000 </v>
   <v>       0.00000000       0.00000000      -2.52710345 </v>
  </varray>
  <energy>
   <i name="e_fr_energy">    -88.45695408 </i>
   <i name="e_wo_entrp">    -88.45968975 </i>
   <i name="e_0_energy">      0.01094268 </i>
  </energy>
  <time name="totalsc">   23.32   23.35</time>
 </calculation>
 <calculation>
  <scstep>
   <time name="dav">    2.55    2.55</time>
   <time name="total">    3.87    3.88</time>
   <energy>
    <i name="alphaZ">    208.58239324 </i>
    <i name="ewald">  10680.98673810 </i>
    <i name="hartreedc"> -17757.37891261 </i>
    <i name="XCdc">     49.08556012 </i>
    <i name="pawpsdc">   8100.37098667 </i>
    <i name="pawaedc">  -8207.20171543 </i>
    <i name="eentropy">      0.01094407 </i>
    <i name="bandstr">   -294.45088697 </i>
    <i name="atom">   7131.53793727 </i>
    <i name="e_fr_energy">    -88.45695554 </i>
    <i name="e_wo_entrp">    -88.46789961 </i>
    <i name="e_0_energy">    -88.45969155 </i>
   </energy>
  </scstep>
  <scstep>
   <time name="diag">    0.76    0.76</time>
   <time name="diis">    1.50    1.51</time>
   <time name="orth">    0.08    0.08</time>
   <time name="total">    3.66    3.66</time>
   <energy>
    <i name="e_fr_energy">    -88.45696149 </i>
    <i name="e_wo_entrp">    -88.46790543 </i>
    <i name="e_0_energy">    -88.45969748 </i>
   </energy>
  </scstep>
  <scstep>
   <time name="diag">    0.76    0.76</time>
   <time name="diis">    1.52    1.52</time>
   <time name="orth">    0.08    0.08</time>
   <time name="total">    3.67    3.67</time>
   <energy>
    <i name="e_fr_energy">    -88.45695759 </i>
    <i name="e_wo_entrp">    -88.46790176 </i>
    <i name="e_0_energy">    -88.45969364 </i>
   </energy>
  </scstep>
  <scstep>
   <time name="diag">    0.76    0.76</time>
   <time name="diis">    1.27    1.27</time>
   <time name="orth">    0.08    0.08</time>
   <time name="total">    2.99    2.99</time>
   <energy>
    <i name="alphaZ">    208.58239324 </i>
    <i name="ewald">  10680.98673810 </i>
    <i name="hartreedc"> -17757.37075706 </i>
    <i name="XCdc">     49.08546650 </i>
    <i name="pawpsdc">   8100.37098421 </i>
    <i name="pawaedc">  -8207.20161694 </i>
    <i name="eentropy">      0.01094398 </i>
    <i name="bandstr">   -294.45904990 </i>
    <i name="atom">   7131.53793727 </i>
    <i name="e_fr_energy">    -88.45696060 </i>
    <i name="e_wo_entrp">    -88.46790458 </i>
    <i name="e_0_energy">    -88.45969659 </i>
   </energy>
  </scstep>
  <structure>
   <crystal>
    <varray name="basis" >
     <v>       5.64000000       0.00000000       0.00000000 </v>
     <v>       0.00000000       5.64000000       0.00000000 </v>
     <v>       0.00000000       0.00000000      15.00000000 </v>
    </varray>
    <i name="volume">    477.14400000 </i>
    <varray name="rec_basis" >
     <v>       0.17730496       0.00000000       0.00000000 </v>
     <v>       0.00000000       0.17730496       0.00000000 </v>
     <v>       0.00000000       0.00000000       0.06666667 </v>
    </varray>
   </crystal>
   <varray name="positions" >
    <v>       0.00000000       0.00000000       0.00000000 </v>
    <v>       0.50000000       0.00000000       0.00000000 </v>
    <v>       0.00000000       0.50000000       0.00000000 </v>
    <v>       0.50000000       0.50000000       0.00000000 </v>
    <v>       0.25000000       0.25000000       0.09400000 </v>
    <v>       0.75000000       0.25000000       0.09400000 </v>
    <v>       0.25000000       0.75000000       0.09400000 </v>
    <v>       0.75000000       0.75000000       0.09400000 </v>
    <v>       0.00000000      -0.00000000       0.18755463 </v>
    <v>       0.50000000       0.00000000       0.18755463 </v>
    <v>       0.00000000       0.50000000       0.18755463 </v>
    <v>       0.50000000       0.50000000       0.18755463 </v>
   </varray>
  </structure>
  <varray name="forces" >
   <v>       0.00000000      -0.00000000       0.04470324 </v>
   <v>      -0.00000000      -0.00000000       0.04470324 </v>
   <v>       0.00000000       0.00000000       0.04470324 </v>
   <v>       0.00000000       0.00000000       0.04470324 </v>
   <v>       0.00000000       0.00000000      -0.01796412 </v>
   <v>      -0.00000000       0.00000000      -0.01796412 </v>
   <v>      -0.00000000      -0.00000000      -0.01796412 </v>
   <v>      -0.00000000       0.00000000      -0.01796412 </v>
   <v>      -0.00000000       0.00000000      -0.02673912 </v>
   <v>       0.00000000       0.00000000      -0.02673912 </v>
   <v>       0.00000000      -0.00000000      -0.02673912 </v>
   <v>       0.00000000       0.00000000      -0.02673912 </v>
  </varray>
  <varray name="stress" >
   <v>     -45.19778459      -0.00000000       0.00000000 </v>
   <v>       0.00000000     -45.19778459       0.00000000 </v>
   <v>       0.00000000      -0.00000000      -2.52112069 </v>
  </varray>
  <energy>
   <i name="e_fr_energy">    -88.45696060 </i>
   <i name="e_wo_entrp">    -88.45969659 </i>
   <i name="e_0_energy">      0.01094398 </i>
  </energy>
  <time name="totalsc">   22.60   22.63</time>
 </calculation>
 <calculation>
  <scstep>
   <time name="dav">    2.58    2.58</time>
   <time name="total">    3.92    3.92</time>
   <energy>
    <i name="alphaZ">    208.58239324 </i>
    <i name="ewald">  10681.04996069 </i>
    <i name="hartreedc"> -17757.43032840 </i>
    <i name="XCdc">     49.08559223 </i>
    <i name="pawpsdc">   8100.37395328 </i>
    <i name="pawaedc">  -8207.20470448 </i>
    <i name="eentropy">      0.01094683 </i>
    <i name="bandstr">   -294.46271564 </i>
    <i name="atom">   7131.53793727 </i>
    <i name="e_fr_energy">    -88.45696499 </i>
    <i name="e_wo_entrp">    -88.46791183 </i>
    <i name="e_0_energy">    -88.45970170 </i>
   </energy>
  </scstep>
  <scstep>
   <time name="diag">    0.76    0.76</time>
   <time name="diis">    1.68    1.69</time>
   <time name="orth">    0.08    0.08</time>
   <time name="total">    3.87    3.87</time>
   <energy>
    <i name="e_fr_energy">    -88.45697143 </i>
    <i name="e_wo_entrp">    -88.46791661 </i>
    <i name="e_0_energy">    -88.45970773 </i>
   </energy>
  </scstep>
  <scstep>
   <time name="diag">    0.77    0.77</time>
   <time name="diis">    1.68    1.69</time>
   <time name="orth">    0.08    0.08</time>
   <time name="total">    3.88    3.89</time>
   <energy>
    <i name="e_fr_energy">    -88.45696639 </i>
    <i name="e_wo_entrp">    -88.46791228 </i>
    <i name="e_0_energy">    -88.45970287 </i>
   </energy>
  </scstep>
  <scstep>
   <time name="diag">    0.77    0.77</time>
   <time name="diis">    1.30    1.30</time>
   <time name="orth">    0.08    0.08</time>
   <time name="total">    3.05    3.05</time>
   <energy>
    <i name="alphaZ">    208.58239324 </i>
    <i name="ewald">  10681.04996069 </i>
    <i name="hartreedc"> -17757.42640034 </i>
    <i name="XCdc">     49.08550899 </i>
    <i name="pawpsdc">   8100.38716582 </i>
    <i name="pawaedc">  -8207.21818164 </i>
    <i name="eentropy">      0.01094672 </i>
    <i name="bandstr">   -294.46629954 </i>
    <i name="atom">   7131.53793727 </i>
    <i name="e_fr_energy">    -88.45696879 </i>
    <i name="e_wo_entrp">    -88.46791551 </i>
    <i name="e_0_energy">    -88.45970547 </i>
   </energy>
  </scstep>
  <structure>
   <crystal>
    <varray name="basis" >
     <v>       5.64000000       0.00000000       0.00000000 </v>
     <v>       0.00000000       5.64000000       0.00000000 </v>
     <v>       0.00000000       0.00000000      15.00000000 </v>
    </varray>
    <i name="volume">    477.14400000 </i>
    <varray name="rec_basis" >
     <v>       0.17730496       0.00000000       0.00000000 </v>
     <v>       0.00000000       0.17730496       0.00000000 </v>
     <v>       0.00000000       0.00000000       0.06666667 </v>
    </varray>
   </crystal>
   <varray name="positions" >
    <v>       0.00000000       0.00000000       0.00000000 </v>
    <v>       0.50000000       0.00000000       0.00000000 </v>
    <v>       0.00000000       0.50000000       0.00000000 </v>
    <v>       0.50000000       0.50000000       0.00000000 </v>
    <v>       0.25000000       0.25000000       0.09400000 </v>
    <v>       0.75000000       0.25000000       0.09400000 </v>
    <v>       0.25000000       0.75000000       0.09400000 </v>
    <v>       0.75000000       0.75000000       0.09400000 </v>
    <v>       0.00000000      -0.00000000       0.18755353 </v>
    <v>       0.50000000       0.00000000       0.18755353 </v>
    <v>       0.00000000       0.50000000       0.18755353 </v>
    <v>       0.50000000       0.50000000       0.18755353 </v>
   </varray>
  </structure>
  <varray name="forces" >
   <v>       0.00000000      -0.00000000       0.04504233 </v>
   <v>       0.00000000      -0.00000000       0.04504233 </v>
   <v>      -0.00000000       0.00000000       0.04504233 </v>
   <v>      -0.00000000      -0.00000000       0.04504233 </v>
   <v>       0.00000000       0.00000000      -0.01753522 </v>
   <v>      -0.00000000       0.00000000      -0.01753522 </v>
   <v>       0.00000000       0.00000000      -0.01753522 </v>
   <v>      -0.00000000      -0.00000000      -0.01753522 </v>
   <v>      -0.00000000      -0.00000000      -0.02750711 </v>
   <v>      -0.00000000      -0.00000000      -0.02750711 </v>
   <v>      -0.00000000      -0.00000000      -0.02750711 </v>
   <v>      -0.00000000      -0.00000000      -0.02750711 </v>
  </varray>
  <varray name="stress" >
   <v>     -45.19655804       0.00000000       0.00000000 </v>
   <v>       0.00000000     -45.19655804       0.00000000 </v>
   <v>       0.00000000       0.00000000      -2.52112426 </v>
  </varray>
  <energy>
   <i name="e_fr_energy">    -88.45696879 </i>
   <i name="e_wo_entrp">    -88.45970547 </i>
   <i name="e_0_energy">      0.01094672 </i>
  </energy>
  <time name="totalsc">   23.18   23.20</time>
 </calculation>
 <calculation>
  <scstep>
   <time name="dav">    2.60    2.60</time>
   <time name="total">    3.93    3.94</time>
   <energy>
    <i name="alphaZ">    208.58239324 </i>
    <i name="ewald">  10681.17640597 </i>
    <i name="hartreedc"> -17757.54894349 </i>
    <i name="XCdc">     49.08569025 </i>
    <i name="pawpsdc">   8100.38837063 </i>
    <i name="pawaedc">  -8207.21939966 </i>
    <i name="eentropy">      0.01095217 </i>
    <i name="bandstr">   -294.47037954 </i>
    <i name="atom">   7131.53793727 </i>
    <i name="e_fr_energy">    -88.45697317 </i>
    <i name="e_wo_entrp">    -88.46792533 </i>
    <i name="e_0_energy">    -88.45971121 </i>
   </energy>
  </scstep>
  <scstep>
   <time name="diag">    0.76    0.77</time>
   <time name="diis">    1.58    1.58</time>
   <time name="orth">    0.08    0.08</time>
   <time name="total">    3.77    3.77</time>
   <energy>
    <i name="e_fr_energy">    -88.45697741 </i>
    <i name="e_wo_entrp">    -88.46792962 </i>
    <i name="e_0_energy">    -88.45971547 </i>
   </energy>
  </scstep>
  <scstep>
   <time name="diag">    0.77    0.77</time>
   <time name="diis">    1.59    1.59</time>
   <time name="orth">    0.08    0.08</time>
   <time name="total">    3.78    3.79</time>
   <energy>
    <i name="e_fr_energy">    -88.45697391 </i>
    <i name="e_wo_entrp">    -88.46792615 </i>
    <i name="e_0_energy">    -88.45971197 </i>
   </energy>
  </scstep>
  <scstep>
   <time name="diag">    0.77    0.77</time>
   <time name="diis">    1.28    1.28</time>
   <time name="orth">    0.08    0.08</time>
   <time name="total">    3.03    3.03</time>
   <energy>
    <i name="alphaZ">    208.58239324 </i>
    <i name="ewald">  10681.17640597 </i>
    <i name="hartreedc"> -17757.54429097 </i>
    <i name="XCdc">     49.08560056 </i>
    <i name="pawpsdc">   8100.41426660 </i>
    <i name="pawaedc">  -8207.24544687 </i>
    <i name="eentropy">      0.01095157 </i>
    <i name="bandstr">   -294.47479297 </i>
    <i name="atom">   7131.53793727 </i>
    <i name="e_fr_energy">    -88.45697561 </i>
    <i name="e_wo_entrp">    -88.46792717 </i>
    <i name="e_0_energy">    -88.45971350 </i>
   </energy>
  </scstep>
  <structure>
   <crystal>
    <varray name="basis" >
     <v>       5.64000000       0.00000000       0.00000000 </v>
     <v>       0.00000000       5.64000000       0.00000000 </v>
     <v>       0.00000000       0.00000000      15.00000000 </v>
    </varray>
    <i name="volume">    477.14400000 </i>
    <varray name="rec_basis" >
     <v>       0.17730496       0.00000000       0.00000000 </v>
     <v>       0.00000000       0.17730496       0.00000000 </v>
     <v>       0.00000000       0.00000000       0.06666667 </v>
    </varray>
   </crystal>
   <varray name="positions" >
    <v>       0.00000000       0.00000000       0.00000000 </v>
    <v>       0.50000000       0.00000000       0.00000000 </v>
    <v>       0.00000000       0.50000000       0.00000000 </v>
    <v>       0.50000000       0.50000000       0.00000000 </v>
    <v>       0.25000000       0.25000000       0.09400000 </v>
    <v>       0.75000000       0.25000000       0.09400000 </v>
    <v>       0.25000000       0.75000000       0.09400000 </v>
    <v>       0.75000000       0.75000000       0.09400000 </v>
    <v>       0.00000000      -0.00000000       0.18755134 </v>
    <v>       0.50000000       0.00000000       0.18755134 </v>
    <v>       0.00000000       0.50000000       0.18755134 </v>
    <v>       0.50000000       0.50000000       0.18755134 </v>
   </varray>
  </structure>
  <varray name="forces" >
   <v>      -0.00000000      -0.00000000       0.04479251 </v>
   <v>       0.00000000       0.00000000       0.04479251 </v>
   <v>       0.00000000       0.00000000       0.04479251 </v>
   <v>       0.00000000       0.00000000       0.04479251 </v>
   <v>       0.00000000      -0.00000000      -0.01762019 </v>
   <v>       0.00000000      -0.00000000      -0.01762019 </v>
   <v>      -0.00000000      -0.00000000      -0.01762019 </v>
   <v>      -0.00000000       0.00000000      -0.01762019 </v>
   <v>      -0.00000000       0.00000000      -0.02717232 </v>
   <v>      -0.00000000      -0.00000000      -0.02717232 </v>
   <v>       0.00000000       0.00000000      -0.02717232 </v>
   <v>       0.00000000      -0.00000000      -0.02717232 </v>
  </varray>
  <varray name="stress" >
   <v>     -45.19659801       0.00000000       0.00000000 </v>
[...]
       <r>     7.9633     0.0000    63.0000 </r>
       <r>     8.0332     0.0000    63.0000 </r>
       <r>     8.1030     0.0000    63.0000 </r>
       <r>     8.1729     0.0000    63.0000 </r>
       <r>     8.2428     0.0000    63.0000 </r>
       <r>     8.3127     0.0000    63.0000 </r>
       <r>     8.3826     0.0000    63.0000 </r>
       <r>     8.4524     0.0000    63.0000 </r>
       <r>     8.5223     0.0000    63.0000 </r>
       <r>     8.5922     0.0000    63.0000 </r>
       <r>     8.6621     0.0000    63.0000 </r>
       <r>     8.7319     0.0000    63.0000 </r>
       <r>     8.8018     0.0000    63.0000 </r>
       <r>     8.8717     0.0000    63.0000 </r>
       <r>     8.9416     0.0000    63.0000 </r>
       <r>     9.0115     0.0000    63.0000 </r>
       <r>     9.0813     0.0000    63.0000 </r>
       <r>     9.1512     0.0000    63.0000 </r>
       <r>     9.2211     0.0000    63.0000 </r>
       <r>     9.2910     0.0000    63.0000 </r>
       <r>     9.3608     0.0000    63.0000 </r>
       <r>     9.4307     0.0000    63.0000 </r>
       <r>     9.5006     0.0000    63.0000 </r>
       <r>     9.5705     0.0000    63.0000 </r>
       <r>     9.6404     0.0000    63.0000 </r>
       <r>     9.7102     0.0000    63.0000 </r>
       <r>     9.7801     0.0000    63.0000 </r>
       <r>     9.8500     0.0000    63.0000 </r>
       <r>     9.9199     0.0000    63.0000 </r>
       <r>     9.9897     0.0000    63.0000 </r>
       <r>    10.0596     0.0000    63.0000 </r>
       <r>    10.1295     0.0000    63.0000 </r>
       <r>    10.1994     0.0000    63.0000 </r>
       <r>    10.2693     0.0000    63.0000 </r>
       <r>    10.3391     0.0000    63.0000 </r>
       <r>    10.4090     0.0000    63.0000 </r>
       <r>    10.4789     0.0000    63.0000 </r>
       <r>    10.5488     0.0000    63.0000 </r>
       <r>    10.6186     0.0000    63.0000 </r>
       <r>    10.6885     0.0000    63.0000 </r>
       <r>    10.7584     0.0000    63.0000 </r>
       <r>    10.8283     0.0000    63.0000 </r>
       <r>    10.8982     0.0000    63.0000 </r>
       <r>    10.9680     0.0000    63.0000 </r>
       <r>    11.0379     0.0000    63.0000 </r>
       <r>    11.1078     0.0000    63.0000 </r>
       <r>    11.1777     0.0000    63.0000 </r>
       <r>    11.2475     0.0000    63.0000 </r>
       <r>    11.3174     0.0000    63.0000 </r>
       <r>    11.3873     0.0000    63.0000 </r>
       <r>    11.4572     0.0000    63.0000 </r>
       <r>    11.5271     0.0000    63.0000 </r>
       <r>    11.5969     0.0000    63.0000 </r>
       <r>    11.6668     0.0000    63.0000 </r>
       <r>    11.7367     0.0000    63.0000 </r>
       <r>    11.8066     0.0000    63.0000 </r>
       <r>    11.8764     0.0000    63.0000 </r>
       <r>    11.9463     0.0000    63.0000 </r>
       <r>    12.0162     0.0000    63.0000 </r>
       <r>    12.0861     0.0000    63.0000 </r>
       <r>    12.1560     0.0000    63.0000 </r>
       <r>    12.2258     0.0000    63.0000 </r>
       <r>    12.2957     0.0000    63.0000 </r>
       <r>    12.3656     0.0000    63.0000 </r>
      </set>
      <set comment="spin 2">
       <r>    -8.5977     0.0000     0.0000 </r>
       <r>    -8.5279     0.0000     0.0000 </r>
       <r>    -8.4580     0.0000     0.0000 </r>
       <r>    -8.3881     0.0000     0.0000 </r>
       <r>    -8.3182     0.0000     0.0000 </r>
       <r>    -8.2483     0.0000     0.0000 </r>
       <r>    -8.1785     0.0000     0.0000 </r>
       <r>    -8.1086     0.0000     0.0000 </r>
       <r>    -8.0387     0.0000     0.0000 </r>
       <r>    -7.9688     0.0000     0.0000 </r>
       <r>    -7.8990     0.0000     0.0000 </r>
       <r>    -7.8291     0.0000     0.0000 </r>
       <r>    -7.7592     0.0000     0.0000 </r>
       <r>    -7.6893     0.0002     0.0000 </r>
       <r>    -7.6194     0.0062     0.0004 </r>
       <r>    -7.5496     0.0527     0.0041 </r>
       <r>    -7.4797    -0.1994    -0.0098 </r>
       <r>    -7.4098    -0.4818    -0.0435 </r>
       <r>    -7.3399     6.0082     0.3764 </r>
       <r>    -7.2701     8.6258     0.9791 </r>
       <r>    -7.2002     0.7315     1.0302 </r>
       <r>    -7.1303    -0.5023     0.9951 </r>
       <r>    -7.0604     0.0534     0.9989 </r>
       <r>    -6.9905     0.0158     1.0000 </r>
       <r>    -6.9207     0.0006     1.0000 </r>
       <r>    -6.8508     0.0000     1.0000 </r>
       <r>    -6.7809     0.0000     1.0000 </r>
       <r>    -6.7110     0.0000     1.0000 </r>
       <r>    -6.6412     0.0000     1.0000 </r>
       <r>    -6.5713     0.0000     1.0000 </r>
       <r>    -6.5014     0.0000     1.0000 </r>
       <r>    -6.4315     0.0000     1.0000 </r>
       <r>    -6.3616     0.0000     1.0000 </r>
       <r>    -6.2918     0.0000     1.0000 </r>
       <r>    -6.2219     0.0000     1.0000 </r>
       <r>    -6.1520     0.0000     1.0000 </r>
       <r>    -6.0821     0.0000     1.0000 </r>
       <r>    -6.0123     0.0000     1.0000 </r>
       <r>    -5.9424     0.0000     1.0000 </r>
       <r>    -5.8725     0.0000     1.0000 </r>
       <r>    -5.8026     0.0000     1.0000 </r>
       <r>    -5.7327     0.0000     1.0000 </r>
       <r>    -5.6629     0.0000     1.0000 </r>
       <r>    -5.5930     0.0018     1.0001 </r>
       <r>    -5.5231     0.0408     1.0030 </r>
       <r>    -5.4532     0.0843     1.0089 </r>
       <r>    -5.3834    -1.1949     0.9254 </r>
       <r>    -5.3135     2.7229     1.1156 </r>
       <r>    -5.2436    18.3234     2.3960 </r>
       <r>    -5.1737    10.0727     3.0999 </r>
       <r>    -5.1038    -1.2831     3.0102 </r>
       <r>    -5.0340    -0.2489     2.9928 </r>
       <r>    -4.9641     0.0935     2.9994 </r>
       <r>    -4.8942     0.0088     3.0000 </r>
       <r>    -4.8243     0.0002     3.0000 </r>
       <r>    -4.7545     0.0004     3.0000 </r>
       <r>    -4.6846     0.0119     3.0009 </r>
       <r>    -4.6147     0.0579     3.0049 </r>
       <r>    -4.5448    -0.3992     2.9770 </r>
       <r>    -4.4749     0.2123     2.9918 </r>
       <r>    -4.4051     7.9082     3.5444 </r>
       <r>    -4.3352     6.9696     4.0315 </r>
       <r>    -4.2653    -0.1584     4.0204 </r>
       <r>    -4.1954    -0.6350     3.9760 </r>
       <r>    -4.1256     0.0474     3.9793 </r>
       <r>    -4.0557     7.4839     4.5023 </r>
       <r>    -3.9858     7.4262     5.0212 </r>
       <r>    -3.9159    -0.0318     5.0190 </r>
       <r>    -3.8460    -0.3380     4.9954 </r>
       <r>    -3.7762     0.1033     5.0026 </r>
       <r>    -3.7063     0.0798     5.0082 </r>
       <r>    -3.6364    -1.2548     4.9205 </r>
       <r>    -3.5665     3.4448     5.1612 </r>
       <r>    -3.4967    18.3243     6.4417 </r>
       <r>    -3.4268     8.3509     7.0252 </r>
       <r>    -3.3569     9.1869     7.6672 </r>
       <r>    -3.2870    21.6404     9.1794 </r>
       <r>    -3.2171    26.7092    11.0457 </r>
       <r>    -3.1473    14.7957    12.0796 </r>
       <r>    -3.0774    -0.7557    12.0268 </r>
       <r>    -3.0075    -0.5363    11.9893 </r>
       <r>    -2.9376     0.1421    11.9993 </r>
       <r>    -2.8678     0.0922    12.0057 </r>
       <r>    -2.7979    -0.2637    11.9873 </r>
       <r>    -2.7280    -0.5786    11.9469 </r>
       <r>    -2.6581     7.8659    12.4965 </r>
       <r>    -2.5882    16.1374    13.6242 </r>
       <r>    -2.5184     5.4632    14.0059 </r>
       <r>    -2.4485     1.2436    14.0928 </r>
       <r>    -2.3786    21.4203    15.5896 </r>
       <r>    -2.3087    30.5933    17.7274 </r>
       <r>    -2.2389     4.3823    18.0336 </r>
       <r>    -2.1690     4.0654    18.3177 </r>
       <r>    -2.0991    20.4123    19.7441 </r>
       <r>    -2.0292    13.1793    20.6650 </r>
       <r>    -1.9593    13.3689    21.5992 </r>
       <r>    -1.8895    26.1694    23.4279 </r>
       <r>    -1.8196    10.0223    24.1282 </r>
       <r>    -1.7497    -1.9672    23.9907 </r>
       <r>    -1.6798    -0.5336    23.9535 </r>
       <r>    -1.6100     6.5422    24.4106 </r>
       <r>    -1.5401     8.3521    24.9942 </r>
       <r>    -1.4702     0.6095    25.0368 </r>
       <r>    -1.4003    -0.9542    24.9701 </r>
       <r>    -1.3304    -0.7961    24.9145 </r>
       <r>    -1.2606    13.8577    25.8829 </r>
       <r>    -1.1907    23.2079    27.5046 </r>
       <r>    -1.1208     6.9184    27.9880 </r>
       <r>    -1.0509    10.5318    28.7240 </r>
       <r>    -0.9811    17.1990    29.9258 </r>
       <r>    -0.9112     9.4351    30.5851 </r>
       <r>    -0.8413    18.6761    31.8901 </r>
       <r>    -0.7714    15.5510    32.9768 </r>
       <r>    -0.7015     1.3223    33.0692 </r>
       <r>    -0.6317     9.0101    33.6988 </r>
       <r>    -0.5618    14.4084    34.7056 </r>
       <r>    -0.4919    11.4046    35.5025 </r>
       <r>    -0.4220    20.8371    36.9586 </r>
       <r>    -0.3522    25.5205    38.7419 </r>
       <r>    -0.2823     9.8644    39.4312 </r>
       <r>    -0.2124    18.9330    40.7542 </r>
       <r>    -0.1425    16.9186    41.9364 </r>
       <r>    -0.0727    12.2528    42.7926 </r>
       <r>    -0.0028     3.5961    43.0439 </r>
       <r>     0.0671    -2.4184    42.8749 </r>
       <r>     0.1370    10.9316    43.6388 </r>
       <r>     0.2069    26.1930    45.4691 </r>
       <r>     0.2767    20.8945    46.9292 </r>
       <r>     0.3466    33.0003    49.2352 </r>
       <r>     0.4165    24.0717    50.9172 </r>
       <r>     0.4864     2.1426    51.0670 </r>
       <r>     0.5562     9.1230    51.7044 </r>
       <r>     0.6261    23.3351    53.3351 </r>
       <r>     0.6960    31.3201    55.5236 </r>
       <r>     0.7659    24.0237    57.2024 </r>
       <r>     0.8358    20.8908    58.6622 </r>
       <r>     0.9056    27.3229    60.5714 </r>
       <r>     0.9755    10.2553    61.2880 </r>
       <r>     1.0454    13.0001    62.1965 </r>
       <r>     1.1153    11.3533    62.9898 </r>
       <r>     1.1851     0.6072    63.0322 </r>
       <r>     1.2550    -0.5556    62.9934 </r>
       <r>     1.3249     0.0727    62.9985 </r>
       <r>     1.3948     0.0208    62.9999 </r>
       <r>     1.4647     0.0009    63.0000 </r>
       <r>     1.5345     0.0000    63.0000 </r>
       <r>     1.6044     0.0000    63.0000 </r>
       <r>     1.6743     0.0000    63.0000 </r>
       <r>     1.7442     0.0000    63.0000 </r>
       <r>     1.8140     0.0000    63.0000 </r>
       <r>     1.8839     0.0000    63.0000 </r>
       <r>     1.9538     0.0000    63.0000 </r>
       <r>     2.0237     0.0000    63.0000 </r>
       <r>     2.0936     0.0000    63.0000 </r>
       <r>     2.1634     0.0000    63.0000 </r>
       <r>     2.2333     0.0000    63.0000 </r>
       <r>     2.3032     0.0000    63.0000 </r>
       <r>     2.3731     0.0000    63.0000 </r>
       <r>     2.4429     0.0000    63.0000 </r>
       <r>     2.5128     0.0000    63.0000 </r>
       <r>     2.5827     0.0000    63.0000 </r>
       <r>     2.6526     0.0000    63.0000 </r>
       <r>     2.7225     0.0000    63.0000 </r>
       <r>     2.7923     0.0000    63.0000 </r>
       <r>     2.8622     0.0000    63.0000 </r>
       <r>     2.9321     0.0000    63.0000 </r>
       <r>     3.0020     0.0000    63.0000 </r>
       <r>     3.0718     0.0000    63.0000 </r>
       <r>     3.1417     0.0000    63.0000 </r>
       <r>     3.2116     0.0000    63.0000 </r>
       <r>     3.2815     0.0000    63.0000 </r>
       <r>     3.3514     0.0000    63.0000 </r>
       <r>     3.4212     0.0000    63.0000 </r>
       <r>     3.4911     0.0000    63.0000 </r>
       <r>     3.5610     0.0000    63.0000 </r>
       <r>     3.6309     0.0000    63.0000 </r>
       <r>     3.7007     0.0000    63.0000 </r>
       <r>     3.7706     0.0000    63.0000 </r>
       <r>     3.8405     0.0000    63.0000 </r>
       <r>     3.9104     0.0000    63.0000 </r>
       <r>     3.9803     0.0000    63.0000 </r>
       <r>     4.0501     0.0000    63.0000 </r>
       <r>     4.1200     0.0000    63.0000 </r>
       <r>     4.1899     0.0000    63.0000 </r>
       <r>     4.2598     0.0000    63.0000 </r>
       <r>     4.3296     0.0000    63.0000 </r>
       <r>     4.3995     0.0000    63.0000 </r>
       <r>     4.4694     0.0000    63.0000 </r>
       <r>     4.5393     0.0000    63.0000 </r>
       <r>     4.6092     0.0000    63.0000 </r>
       <r>     4.6790     0.0000    63.0000 </r>
       <r>     4.7489     0.0000    63.0000 </r>
       <r>     4.8188     0.0000    63.0000 </r>
       <r>     4.8887     0.0000    63.0000 </r>
       <r>     4.9585     0.0000    63.0000 </r>
       <r>     5.0284     0.0000    63.0000 </r>
       <r>     5.0983     0.0000    63.0000 </r>
       <r>     5.1682     0.0000    63.0000 </r>
       <r>     5.2381     0.0000    63.0000 </r>
       <r>     5.3079     0.0000    63.0000 </r>
       <r>     5.3778     0.0000    63.0000 </r>
       <r>     5.4477     0.0000    63.0000 </r>
       <r>     5.5176     0.0000    63.0000 </r>
       <r>     5.5874     0.0000    63.0000 </r>
       <r>     5.6573     0.0000    63.0000 </r>
       <r>     5.7272     0.0000    63.0000 </r>
       <r>     5.7971     0.0000    63.0000 </r>
       <r>     5.8670     0.0000    63.0000 </r>
       <r>     5.9368     0.0000    63.0000 </r>
       <r>     6.0067     0.0000    63.0000 </r>
       <r>     6.0766     0.0000    63.0000 </r>
       <r>     6.1465     0.0000    63.0000 </r>
       <r>     6.2163     0.0000    63.0000 </r>
       <r>     6.2862     0.0000    63.0000 </r>
       <r>     6.3561     0.0000    63.0000 </r>
       <r>     6.4260     0.0000    63.0000 </r>
       <r>     6.4959     0.0000    63.0000 </r>
       <r>     6.5657     0.0000    63.0000 </r>
       <r>     6.6356     0.0000    63.0000 </r>
       <r>     6.7055     0.0000    63.0000 </r>
       <r>     6.7754     0.0000    63.0000 </r>
       <r>     6.8452     0.0000    63.0000 </r>
       <r>     6.9151     0.0000    63.0000 </r>
       <r>     6.9850     0.0000    63.0000 </r>
       <r>     7.0549     0.0000    63.0000 </r>
       <r>     7.1248     0.0000    63.0000 </r>
       <r>     7.1946     0.0000    63.0000 </r>
       <r>     7.2645     0.0000    63.0000 </r>
       <r>     7.3344     0.0000    63.0000 </r>
       <r>     7.4043     0.0000    63.0000 </r>
       <r>     7.4741     0.0000    63.0000 </r>
       <r>     7.5440     0.0000    63.0000 </r>
       <r>     7.6139     0.0000    63.0000 </r>
       <r>     7.6838     0.0000    63.0000 </r>
       <r>     7.7537     0.0000    63.0000 </r>
       <r>     7.8235     0.0000    63.0000 </r>
       <r>     7.8934     0.0000    63.0000 </r>
       <r>     7.9633     0.0000    63.0000 </r>
       <r>     8.0332     0.0000    63.0000 </r>
       <r>     8.1030     0.0000    63.0000 </r>
       <r>     8.1729     0.0000    63.0000 </r>
       <r>     8.2428     0.0000    63.0000 </r>
       <r>     8.3127     0.0000    63.0000 </r>
       <r>     8.3826     0.0000    63.0000 </r>
       <r>     8.4524     0.0000    63.0000 </r>
       <r>     8.5223     0.0000    63.0000 </r>
       <r>     8.5922     0.0000    63.0000 </r>
       <r>     8.6621     0.0000    63.0000 </r>
       <r>     8.7319     0.0000    63.0000 </r>
       <r>     8.8018     0.0000    63.0000 </r>
       <r>     8.8717     0.0000    63.0000 </r>
       <r>     8.9416     0.0000    63.0000 </r>
       <r>     9.0115     0.0000    63.0000 </r>
       <r>     9.0813     0.0000    63.0000 </r>
       <r>     9.1512     0.0000    63.0000 </r>
       <r>     9.2211     0.0000    63.0000 </r>
       <r>     9.2910     0.0000    63.0000 </r>
       <r>     9.3608     0.0000    63.0000 </r>
       <r>     9.4307     0.0000    63.0000 </r>
       <r>     9.5006     0.0000    63.0000 </r>
       <r>     9.5705     0.0000    63.0000 </r>
       <r>     9.6404     0.0000    63.0000 </r>
       <r>     9.7102     0.0000    63.0000 </r>
       <r>     9.7801     0.0000    63.0000 </r>
       <r>     9.8500     0.0000    63.0000 </r>
       <r>     9.9199     0.0000    63.0000 </r>
       <r>     9.9897     0.0000    63.0000 </r>
       <r>    10.0596     0.0000    63.0000 </r>
       <r>    10.1295     0.0000    63.0000 </r>
       <r>    10.1994     0.0000    63.0000 </r>
       <r>    10.2693     0.0000    63.0000 </r>
       <r>    10.3391     0.0000    63.0000 </r>
       <r>    10.4090     0.0000    63.0000 </r>
       <r>    10.4789     0.0000    63.0000 </r>
       <r>    10.5488     0.0000    63.0000 </r>
       <r>    10.6186     0.0000    63.0000 </r>
       <r>    10.6885     0.0000    63.0000 </r>
       <r>    10.7584     0.0000    63.0000 </r>
       <r>    10.8283     0.0000    63.0000 </r>
       <r>    10.8982     0.0000    63.0000 </r>
       <r>    10.9680     0.0000    63.0000 </r>
       <r>    11.0379     0.0000    63.0000 </r>
       <r>    11.1078     0.0000    63.0000 </r>
       <r>    11.1777     0.0000    63.0000 </r>
       <r>    11.2475     0.0000    63.0000 </r>
       <r>    11.3174     0.0000    63.0000 </r>
       <r>    11.3873     0.0000    63.0000 </r>
       <r>    11.4572     0.0000    63.0000 </r>
       <r>    11.5271     0.0000    63.0000 </r>
       <r>    11.5969     0.0000    63.0000 </r>
       <r>    11.6668     0.0000    63.0000 </r>
       <r>    11.7367     0.0000    63.0000 </r>
       <r>    11.8066     0.0000    63.0000 </r>
       <r>    11.8764     0.0000    63.0000 </r>
       <r>    11.9463     0.0000    63.0000 </r>
       <r>    12.0162     0.0000    63.0000 </r>
       <r>    12.0861     0.0000    63.0000 </r>
       <r>    12.1560     0.0000    63.0000 </r>
       <r>    12.2258     0.0000    63.0000 </r>
       <r>    12.2957     0.0000    63.0000 </r>
       <r>    12.3656     0.0000    63.0000 </r>
      </set>
     </set>
    </array>
   </total>
  </dos>
 </calculation>
 <structure name="finalpos" >
  <crystal>
   <varray name="basis" >
    <v>       5.64000000       0.00000000       0.00000000 </v>
    <v>       0.00000000       5.64000000       0.00000000 </v>
    <v>       0.00000000       0.00000000      15.00000000 </v>
   </varray>
   <i name="volume">    477.14400000 </i>
   <varray name="rec_basis" >
    <v>       0.17730496       0.00000000       0.00000000 </v>
    <v>       0.00000000       0.17730496       0.00000000 </v>
    <v>       0.00000000       0.00000000       0.06666667 </v>
   </varray>
  </crystal>
  <varray name="positions" >
   <v>       0.00000000       0.00000000       0.00000000 </v>
   <v>       0.50000000       0.00000000       0.00000000 </v>
   <v>       0.00000000       0.50000000       0.00000000 </v>
   <v>       0.50000000       0.50000000       0.00000000 </v>
   <v>       0.25000000       0.25000000       0.09400000 </v>
   <v>       0.75000000       0.25000000       0.09400000 </v>
   <v>       0.25000000       0.75000000       0.09400000 </v>
   <v>       0.75000000       0.75000000       0.09400000 </v>
   <v>       0.00000000      -0.00000000       0.18727495 </v>
   <v>       0.50000000       0.00000000       0.18727495 </v>
   <v>       0.00000000       0.50000000       0.18727495 </v>
   <v>       0.50000000       0.50000000       0.18727495 </v>
  </varray>
  <varray name="selective"  type="logical" >
   <v type="logical" >  F  F  F </v>
   <v type="logical" >  F  F  F </v>
   <v type="logical" >  F  F  F </v>
   <v type="logical" >  F  F  F </v>
   <v type="logical" >  F  F  F </v>
   <v type="logical" >  F  F  F </v>
   <v type="logical" >  F  F  F </v>
   <v type="logical" >  F  F  F </v>
   <v type="logical" >  T  T  T </v>
   <v type="logical" >  T  T  T </v>
   <v type="logical" >  T  T  T </v>
   <v type="logical" >  T  T  T </v>
  </varray>
  <nose>
   <v>      -3.00000000       0.00000000       0.00010000       0.00010000 </v>
  </nose>
 </structure>
</modeling>
