Crystal                                 
           1
     5.640000    0.000000    0.000000
     0.000000    5.640000    0.000000
     0.000000    0.000000   15.000000
   Fe
  12
Direct configuration=     1
   0.00000000  0.00000000  0.00000000
   0.50000000  0.00000000  0.00000000
   0.00000000  0.50000000  0.00000000
   0.50000000  0.50000000  0.00000000
   0.25000000  0.25000000  0.09400000
   0.75000000  0.25000000  0.09400000
   0.25000000  0.75000000  0.09400000
   0.75000000  0.75000000  0.09400000
   0.00000000  0.00000000  0.18800000
   0.50000000  0.00000000  0.18800000
   0.00000000  0.50000000  0.18800000
   0.50000000  0.50000000  0.18800000
Direct configuration=     2
   0.00000000  0.00000000  0.00000000
   0.50000000  0.00000000  0.00000000
   0.00000000  0.50000000  0.00000000
   0.50000000  0.50000000  0.00000000
   0.25000000  0.25000000  0.09400000
   0.75000000  0.25000000  0.09400000
   0.25000000  0.75000000  0.09400000
   0.75000000  0.75000000  0.09400000
   0.00000000 -0.00000000  0.18755566
   0.50000000  0.00000000  0.18755566
   0.00000000  0.50000000  0.18755566
   0.50000000  0.50000000  0.18755566
Direct configuration=     3
   0.00000000  0.00000000  0.00000000
   0.50000000  0.00000000  0.00000000
   0.00000000  0.50000000  0.00000000
   0.50000000  0.50000000  0.00000000
   0.25000000  0.25000000  0.09400000
   0.75000000  0.25000000  0.09400000
   0.25000000  0.75000000  0.09400000
   0.75000000  0.75000000  0.09400000
   0.00000000 -0.00000000  0.18755559
   0.50000000  0.00000000  0.18755559
   0.00000000  0.50000000  0.18755559
   0.50000000  0.50000000  0.18755559
Direct configuration=     4
   0.00000000  0.00000000  0.00000000
   0.50000000  0.00000000  0.00000000
   0.00000000  0.50000000  0.00000000
   0.50000000  0.50000000  0.00000000
   0.25000000  0.25000000  0.09400000
   0.75000000  0.25000000  0.09400000
   0.25000000  0.75000000  0.09400000
   0.75000000  0.75000000  0.09400000
   0.00000000 -0.00000000  0.18755545
   0.50000000  0.00000000  0.18755545
   0.00000000  0.50000000  0.18755545
   0.50000000  0.50000000  0.18755545
Direct configuration=     5
   0.00000000  0.00000000  0.00000000
   0.50000000  0.00000000  0.00000000
   0.00000000  0.50000000  0.00000000
   0.50000000  0.50000000  0.00000000
   0.25000000  0.25000000  0.09400000
   0.75000000  0.25000000  0.09400000
   0.25000000  0.75000000  0.09400000
   0.75000000  0.75000000  0.09400000
   0.00000000 -0.00000000  0.18755518
   0.50000000  0.00000000  0.18755518
   0.00000000  0.50000000  0.18755518
   0.50000000  0.50000000  0.18755518
Direct configuration=     6
   0.00000000  0.00000000  0.00000000
   0.50000000  0.00000000  0.00000000
   0.00000000  0.50000000  0.00000000
   0.50000000  0.50000000  0.00000000
   0.25000000  0.25000000  0.09400000
   0.75000000  0.25000000  0.09400000
   0.25000000  0.75000000  0.09400000
   0.75000000  0.75000000  0.09400000
   0.00000000 -0.00000000  0.18755463
   0.50000000  0.00000000  0.18755463
   0.00000000  0.50000000  0.18755463
   0.50000000  0.50000000  0.18755463
Direct configuration=     7
   0.00000000  0.00000000  0.00000000
   0.50000000  0.00000000  0.00000000
   0.00000000  0.50000000  0.00000000
   0.50000000  0.50000000  0.00000000
   0.25000000  0.25000000  0.09400000
   0.75000000  0.25000000  0.09400000
   0.25000000  0.75000000  0.09400000
   0.75000000  0.75000000  0.09400000
   0.00000000 -0.00000000  0.18755353
   0.50000000  0.00000000  0.18755353
   0.00000000  0.50000000  0.18755353
   0.50000000  0.50000000  0.18755353
Direct configuration=     8
   0.00000000  0.00000000  0.00000000
   0.50000000  0.00000000  0.00000000
   0.00000000  0.50000000  0.00000000
   0.50000000  0.50000000  0.00000000
   0.25000000  0.25000000  0.09400000
   0.75000000  0.25000000  0.09400000
   0.25000000  0.75000000  0.09400000
   0.75000000  0.75000000  0.09400000
   0.00000000 -0.00000000  0.18755134
   0.50000000  0.00000000  0.18755134
   0.00000000  0.50000000  0.18755134
   0.50000000  0.50000000  0.18755134
Direct configuration=     9
   0.00000000  0.00000000  0.00000000
   0.50000000  0.00000000  0.00000000
   0.00000000  0.50000000  0.00000000
   0.50000000  0.50000000  0.00000000
   0.25000000  0.25000000  0.09400000
   0.75000000  0.25000000  0.09400000
   0.25000000  0.75000000  0.09400000
   0.75000000  0.75000000  0.09400000
   0.00000000 -0.00000000  0.18754695
   0.50000000  0.00000000  0.18754695
   0.00000000  0.50000000  0.18754695
   0.50000000  0.50000000  0.18754695
Direct configuration=    10
   0.00000000  0.00000000  0.00000000
   0.50000000  0.00000000  0.00000000
   0.00000000  0.50000000  0.00000000
   0.50000000  0.50000000  0.00000000
   0.25000000  0.25000000  0.09400000
   0.75000000  0.25000000  0.09400000
   0.25000000  0.75000000  0.09400000
   0.75000000  0.75000000  0.09400000
   0.00000000 -0.00000000  0.18753818
   0.50000000  0.00000000  0.18753818
   0.00000000  0.50000000  0.18753818
   0.50000000  0.50000000  0.18753818
Direct configuration=    11
   0.00000000  0.00000000  0.00000000
   0.50000000  0.00000000  0.00000000
   0.00000000  0.50000000  0.00000000
   0.50000000  0.50000000  0.00000000
   0.25000000  0.25000000  0.09400000
   0.75000000  0.25000000  0.09400000
   0.25000000  0.75000000  0.09400000
   0.75000000  0.75000000  0.09400000
   0.00000000 -0.00000000  0.18752063
   0.50000000  0.00000000  0.18752063
   0.00000000  0.50000000  0.18752063
   0.50000000  0.50000000  0.18752063
Direct configuration=    12
   0.00000000  0.00000000  0.00000000
   0.50000000  0.00000000  0.00000000
   0.00000000  0.50000000  0.00000000
   0.50000000  0.50000000  0.00000000
   0.25000000  0.25000000  0.09400000
   0.75000000  0.25000000  0.09400000
   0.25000000  0.75000000  0.09400000
   0.75000000  0.75000000  0.09400000
   0.00000000 -0.00000000  0.18748553
   0.50000000  0.00000000  0.18748553
   0.00000000  0.50000000  0.18748553
   0.50000000  0.50000000  0.18748553
Direct configuration=    13
   0.00000000  0.00000000  0.00000000
   0.50000000  0.00000000  0.00000000
   0.00000000  0.50000000  0.00000000
   0.50000000  0.50000000  0.00000000
   0.25000000  0.25000000  0.09400000
   0.75000000  0.25000000  0.09400000
   0.25000000  0.75000000  0.09400000
   0.75000000  0.75000000  0.09400000
   0.00000000 -0.00000000  0.18741534
   0.50000000  0.00000000  0.18741534
   0.00000000  0.50000000  0.18741534
   0.50000000  0.50000000  0.18741534
Direct configuration=    14
   0.00000000  0.00000000  0.00000000
   0.50000000  0.00000000  0.00000000
   0.00000000  0.50000000  0.00000000
   0.50000000  0.50000000  0.00000000
   0.25000000  0.25000000  0.09400000
   0.75000000  0.25000000  0.09400000
   0.25000000  0.75000000  0.09400000
   0.75000000  0.75000000  0.09400000
   0.00000000 -0.00000000  0.18727495
   0.50000000  0.00000000  0.18727495
   0.00000000  0.50000000  0.18727495
   0.50000000  0.50000000  0.18727495
