   6   6   0   0
  0.2524887E+02  0.2820000E-09  0.2820000E-09  0.1905000E-08  0.5000000E-15
  1.000000000000000E-004
  CAR 
 Crystal                                 
     18.84816416    -10.21453381  301      0.50562714      1.00000000
    -10.215  0.0000E+00  0.0000E+00  0.0000E+00  0.0000E+00
    -10.118  0.0000E+00  0.0000E+00  0.0000E+00  0.0000E+00
    -10.021  0.0000E+00  0.0000E+00  0.0000E+00  0.0000E+00
     -9.924  0.0000E+00  0.0000E+00  0.0000E+00  0.0000E+00
     -9.827  0.0000E+00  0.0000E+00  0.0000E+00  0.0000E+00
     -9.730  0.0000E+00  0.0000E+00  0.0000E+00  0.0000E+00
     -9.633  0.0000E+00  0.0000E+00  0.0000E+00  0.0000E+00
     -9.536  0.0000E+00  0.0000E+00  0.0000E+00  0.0000E+00
     -9.440  0.0000E+00  0.0000E+00  0.0000E+00  0.0000E+00
     -9.343  0.0000E+00  0.0000E+00  0.0000E+00  0.0000E+00
     -9.246  0.0000E+00  0.0000E+00  0.0000E+00  0.0000E+00
     -9.149  0.0000E+00  0.0000E+00  0.0000E+00  0.0000E+00
     -9.052  0.0000E+00  0.0000E+00  0.0000E+00  0.0000E+00
     -8.955  0.0000E+00  0.0000E+00  0.0000E+00  0.0000E+00
     -8.858  0.0000E+00  0.0000E+00  0.0000E+00  0.0000E+00
     -8.761  0.0000E+00  0.0000E+00  0.0000E+00  0.0000E+00
     -8.665  0.0000E+00  0.0000E+00  0.0000E+00  0.0000E+00
     -8.568  0.0000E+00  0.0000E+00  0.0000E+00  0.0000E+00
     -8.471  0.3825E-31  0.0000E+00  0.3705E-32  0.0000E+00
     -8.374  0.2233E-24  0.0000E+00  0.2163E-25  0.0000E+00
     -8.277  0.1891E-18  0.4254E-28  0.1832E-19  0.4121E-29
     -8.180  0.2283E-13  0.1074E-21  0.2212E-14  0.1041E-22
     -8.083  0.3793E-09  0.3907E-16  0.3674E-10  0.3785E-17
     -7.986  0.8135E-06  0.2002E-11  0.7884E-07  0.1940E-12
     -7.890  0.1905E-03  0.1381E-07  0.1853E-04  0.1338E-08
     -7.793  0.1737E-02  0.1168E-04  0.1868E-03  0.1133E-05
     -7.696 -0.2324E-01  0.8962E-03 -0.2064E-02  0.8796E-04
     -7.599  0.2296E+00 -0.5067E-02  0.2017E-01 -0.4029E-03
     -7.502  0.2259E+00  0.2000E-01  0.4206E-01  0.1535E-02
     -7.405 -0.2324E-01  0.3527E+00  0.3981E-01  0.3570E-01
     -7.308  0.1765E-02  0.5240E-01  0.3998E-01  0.4078E-01
     -7.211  0.1857E-03 -0.9292E-02  0.4000E-01  0.3988E-01
     -7.115  0.5447E-03  0.1227E-02  0.4005E-01  0.4000E-01
     -7.018  0.7599E-02  0.3551E-04  0.4079E-01  0.4000E-01
     -6.921 -0.8996E-01  0.1763E-02  0.3207E-01  0.4017E-01
     -6.824  0.7853E+00 -0.3557E-03  0.1081E+00  0.4014E-01
     -6.727  0.1012E+01 -0.5750E-01  0.2062E+00  0.3457E-01
     -6.630  0.7622E-01  0.1240E+01  0.2136E+00  0.1547E+00
     -6.533  0.2902E+00  0.5328E+00  0.2417E+00  0.2063E+00
     -6.436 -0.1704E-01 -0.8485E-01  0.2401E+00  0.1981E+00
     -6.340 -0.1126E-01  0.3240E+00  0.2390E+00  0.2295E+00
     -6.243  0.8702E-01  0.1240E+00  0.2474E+00  0.2415E+00
     -6.146  0.4379E+00 -0.1298E-01  0.2898E+00  0.2402E+00
     -6.049  0.1417E+01 -0.2740E-01  0.4271E+00  0.2376E+00
     -5.952  0.8851E-01  0.1469E+00  0.4356E+00  0.2518E+00
     -5.855  0.5886E+00  0.1420E+01  0.4927E+00  0.3894E+00
     -5.758  0.1162E+01  0.1408E+00  0.6053E+00  0.4030E+00
     -5.661 -0.9179E-02 -0.1150E+00  0.6044E+00  0.3919E+00
     -5.565  0.1407E+01  0.7371E+00  0.7407E+00  0.4633E+00
     -5.468  0.2379E+00  0.1078E+01  0.7638E+00  0.5678E+00
     -5.371 -0.6999E-01 -0.8525E-01  0.7570E+00  0.5595E+00
     -5.274  0.3149E+00 -0.6311E-03  0.7875E+00  0.5595E+00
     -5.177  0.1452E+01  0.2418E-01  0.9282E+00  0.5618E+00
     -5.080  0.9678E+00  0.3614E+00  0.1022E+01  0.5968E+00
     -4.983  0.1677E+01 -0.3085E-01  0.1184E+01  0.5938E+00
     -4.886  0.9705E+00  0.6050E+00  0.1278E+01  0.6524E+00
     -4.789  0.8398E+00  0.1547E+01  0.1360E+01  0.8023E+00
     -4.693  0.6997E+00  0.2739E-01  0.1428E+01  0.8050E+00
     -4.596  0.1757E+01  0.1302E+01  0.1598E+01  0.9310E+00
     -4.499  0.4330E+01  0.1210E+01  0.2017E+01  0.1048E+01
     -4.402  0.8697E+00  0.7878E+00  0.2101E+01  0.1125E+01
     -4.305  0.4592E+01  0.1352E+00  0.2546E+01  0.1138E+01
     -4.208  0.6472E+01  0.1307E+01  0.3173E+01  0.1264E+01
     -4.111  0.2111E+01  0.8070E+00  0.3378E+01  0.1343E+01
     -4.014  0.5627E+01  0.2688E+01  0.3923E+01  0.1603E+01
     -3.918  0.6330E+01 -0.1590E+00  0.4536E+01  0.1587E+01
     -3.821  0.4661E+01  0.1851E+01  0.4988E+01  0.1767E+01
     -3.724  0.4251E+01  0.1782E+01  0.5400E+01  0.1939E+01
     -3.627  0.6098E+01  0.1245E+01  0.5990E+01  0.2060E+01
     -3.530  0.4561E+01  0.3551E+00  0.6432E+01  0.2094E+01
     -3.433  0.3203E+01  0.1607E+01  0.6742E+01  0.2250E+01
     -3.336  0.4732E-01  0.3614E+01  0.6747E+01  0.2600E+01
     -3.239  0.3233E+01  0.3796E+01  0.7060E+01  0.2968E+01
     -3.143  0.9589E+01  0.1298E+01  0.7989E+01  0.3094E+01
     -3.046  0.1006E+02 -0.9137E-01  0.8963E+01  0.3085E+01
     -2.949  0.1031E+02  0.3616E+00  0.9962E+01  0.3120E+01
     -2.852  0.5566E+01  0.5682E+01  0.1050E+02  0.3670E+01
     -2.755  0.4826E+01  0.6755E+01  0.1097E+02  0.4325E+01
     -2.658  0.4009E+01  0.4295E+01  0.1136E+02  0.4741E+01
     -2.561  0.4138E+01  0.7064E+00  0.1176E+02  0.4809E+01
     -2.464  0.5698E+01  0.3958E+01  0.1231E+02  0.5193E+01
     -2.368  0.1208E+01  0.3755E+01  0.1243E+02  0.5556E+01
     -2.271  0.6133E+01  0.4156E+01  0.1302E+02  0.5959E+01
     -2.174  0.5608E+01  0.4002E+01  0.1356E+02  0.6347E+01
     -2.077  0.7281E+01  0.1090E+01  0.1427E+02  0.6452E+01
     -1.980  0.8242E+01  0.1062E+01  0.1507E+02  0.6555E+01
     -1.883  0.1121E+02  0.2543E+01  0.1615E+02  0.6802E+01
     -1.786  0.5830E+01  0.7091E+01  0.1672E+02  0.7489E+01
     -1.689  0.5962E+01  0.4556E+01  0.1730E+02  0.7930E+01
     -1.593  0.3889E+01  0.5445E+01  0.1767E+02  0.8457E+01
     -1.496  0.2547E+01  0.5058E+01  0.1792E+02  0.8947E+01
     -1.399  0.2507E+01  0.6364E+01  0.1816E+02  0.9564E+01
     -1.302  0.4670E+01  0.7535E+01  0.1862E+02  0.1029E+02
     -1.205  0.8839E+01  0.7118E+01  0.1947E+02  0.1098E+02
     -1.108  0.7549E+01  0.6690E+01  0.2020E+02  0.1163E+02
     -1.011  0.6631E+01  0.2083E+01  0.2085E+02  0.1183E+02
     -0.914  0.8050E+01  0.5046E+01  0.2163E+02  0.1232E+02
     -0.818  0.1253E+02  0.5992E+01  0.2284E+02  0.1290E+02
     -0.721  0.6674E+01  0.5833E+01  0.2349E+02  0.1347E+02
     -0.624  0.1344E+02  0.3533E+01  0.2479E+02  0.1381E+02
     -0.527  0.1093E+02  0.5324E+01  0.2585E+02  0.1433E+02
     -0.430  0.4823E+01  0.2237E+01  0.2631E+02  0.1454E+02
     -0.333  0.2034E+01  0.6896E+00  0.2651E+02  0.1461E+02
     -0.236  0.2643E+01  0.8218E+00  0.2677E+02  0.1469E+02
     -0.139  0.7565E+01  0.5859E+01  0.2750E+02  0.1526E+02
     -0.043  0.6499E+01  0.4823E+01  0.2813E+02  0.1572E+02
      0.054  0.6223E+01  0.2044E+01  0.2873E+02  0.1592E+02
      0.151  0.4074E+01  0.2489E+01  0.2913E+02  0.1616E+02
      0.248  0.4875E+01  0.3904E+01  0.2960E+02  0.1654E+02
      0.345  0.2053E+01  0.6695E+01  0.2980E+02  0.1719E+02
      0.442  0.3311E+01  0.3481E+01  0.3012E+02  0.1753E+02
      0.539  0.1945E+01  0.2802E+01  0.3031E+02  0.1780E+02
      0.636  0.1441E+01  0.2714E+01  0.3045E+02  0.1806E+02
      0.732  0.2383E+01  0.7153E+01  0.3068E+02  0.1875E+02
      0.829  0.2139E+01  0.6560E+01  0.3088E+02  0.1939E+02
      0.926  0.1330E+01  0.3110E+01  0.3101E+02  0.1969E+02
      1.023 -0.1474E+00  0.4228E+01  0.3100E+02  0.2010E+02
      1.120  0.1316E-01  0.2884E+01  0.3100E+02  0.2038E+02
      1.217  0.9910E-03  0.5415E+01  0.3100E+02  0.2090E+02
      1.314  0.3958E-05  0.6544E+01  0.3100E+02  0.2154E+02
      1.411  0.1814E-08  0.7339E+01  0.3100E+02  0.2225E+02
      1.507  0.1097E-12  0.9504E+01  0.3100E+02  0.2317E+02
      1.604  0.0000E+00  0.7900E+01  0.3100E+02  0.2394E+02
      1.701  0.0000E+00  0.1412E+02  0.3100E+02  0.2530E+02
      1.798  0.0000E+00  0.7445E+01  0.3100E+02  0.2603E+02
      1.895  0.0000E+00  0.6790E+01  0.3100E+02  0.2668E+02
      1.992  0.0000E+00  0.1146E+02  0.3100E+02  0.2779E+02
      2.089  0.0000E+00  0.5013E+01  0.3100E+02  0.2828E+02
      2.186  0.0000E+00  0.4230E+01  0.3100E+02  0.2869E+02
      2.282  0.0000E+00  0.1090E+02  0.3100E+02  0.2974E+02
      2.379  0.0000E+00  0.9077E+01  0.3100E+02  0.3062E+02
      2.476  0.0000E+00  0.1773E+01  0.3100E+02  0.3079E+02
      2.573  0.0000E+00  0.1173E+01  0.3100E+02  0.3091E+02
      2.670  0.0000E+00  0.1017E+01  0.3100E+02  0.3101E+02
      2.767  0.0000E+00 -0.7932E-01  0.3100E+02  0.3100E+02
      2.864  0.0000E+00  0.5307E-02  0.3100E+02  0.3100E+02
      2.961  0.0000E+00  0.1107E-02  0.3100E+02  0.3100E+02
      3.057  0.0000E+00  0.5895E-05  0.3100E+02  0.3100E+02
      3.154  0.0000E+00  0.3332E-08  0.3100E+02  0.3100E+02
      3.251  0.0000E+00  0.2408E-12  0.3100E+02  0.3100E+02
      3.348  0.0000E+00  0.0000E+00  0.3100E+02  0.3100E+02
      3.445  0.0000E+00  0.0000E+00  0.3100E+02  0.3100E+02
      3.542  0.0000E+00  0.0000E+00  0.3100E+02  0.3100E+02
      3.639  0.0000E+00  0.0000E+00  0.3100E+02  0.3100E+02
      3.736  0.0000E+00  0.0000E+00  0.3100E+02  0.3100E+02
      3.832  0.0000E+00  0.0000E+00  0.3100E+02  0.3100E+02
      3.929  0.0000E+00  0.0000E+00  0.3100E+02  0.3100E+02
      4.026  0.0000E+00  0.0000E+00  0.3100E+02  0.3100E+02
      4.123  0.0000E+00  0.0000E+00  0.3100E+02  0.3100E+02
      4.220  0.0000E+00  0.0000E+00  0.3100E+02  0.3100E+02
      4.317  0.0000E+00  0.0000E+00  0.3100E+02  0.3100E+02
      4.414  0.0000E+00  0.0000E+00  0.3100E+02  0.3100E+02
      4.511  0.0000E+00  0.0000E+00  0.3100E+02  0.3100E+02
      4.607  0.0000E+00  0.0000E+00  0.3100E+02  0.3100E+02
      4.704  0.0000E+00  0.0000E+00  0.3100E+02  0.3100E+02
      4.801  0.0000E+00  0.0000E+00  0.3100E+02  0.3100E+02
      4.898  0.0000E+00  0.0000E+00  0.3100E+02  0.3100E+02
      4.995  0.0000E+00  0.0000E+00  0.3100E+02  0.3100E+02
      5.092  0.0000E+00  0.0000E+00  0.3100E+02  0.3100E+02
      5.189  0.0000E+00  0.0000E+00  0.3100E+02  0.3100E+02
      5.286  0.0000E+00  0.0000E+00  0.3100E+02  0.3100E+02
      5.382  0.0000E+00  0.0000E+00  0.3100E+02  0.3100E+02
      5.479  0.0000E+00  0.0000E+00  0.3100E+02  0.3100E+02
      5.576  0.0000E+00  0.0000E+00  0.3100E+02  0.3100E+02
      5.673  0.0000E+00  0.0000E+00  0.3100E+02  0.3100E+02
      5.770  0.0000E+00  0.0000E+00  0.3100E+02  0.3100E+02
      5.867  0.0000E+00  0.0000E+00  0.3100E+02  0.3100E+02
      5.964  0.0000E+00  0.0000E+00  0.3100E+02  0.3100E+02
      6.061  0.0000E+00  0.0000E+00  0.3100E+02  0.3100E+02
      6.157  0.0000E+00  0.0000E+00  0.3100E+02  0.3100E+02
      6.254  0.0000E+00  0.0000E+00  0.3100E+02  0.3100E+02
      6.351  0.0000E+00  0.0000E+00  0.3100E+02  0.3100E+02
      6.448  0.0000E+00  0.0000E+00  0.3100E+02  0.3100E+02
      6.545  0.0000E+00  0.0000E+00  0.3100E+02  0.3100E+02
      6.642  0.0000E+00  0.0000E+00  0.3100E+02  0.3100E+02
      6.739  0.0000E+00  0.0000E+00  0.3100E+02  0.3100E+02
      6.836  0.0000E+00  0.0000E+00  0.3100E+02  0.3100E+02
      6.932  0.0000E+00  0.0000E+00  0.3100E+02  0.3100E+02
      7.029  0.0000E+00  0.0000E+00  0.3100E+02  0.3100E+02
      7.126  0.0000E+00  0.0000E+00  0.3100E+02  0.3100E+02
      7.223  0.0000E+00  0.0000E+00  0.3100E+02  0.3100E+02
      7.320  0.0000E+00  0.0000E+00  0.3100E+02  0.3100E+02
      7.417  0.0000E+00  0.0000E+00  0.3100E+02  0.3100E+02
      7.514  0.0000E+00  0.0000E+00  0.3100E+02  0.3100E+02
      7.611  0.0000E+00  0.0000E+00  0.3100E+02  0.3100E+02
      7.707  0.0000E+00  0.0000E+00  0.3100E+02  0.3100E+02
      7.804  0.0000E+00  0.0000E+00  0.3100E+02  0.3100E+02
      7.901  0.0000E+00  0.0000E+00  0.3100E+02  0.3100E+02
      7.998  0.0000E+00  0.0000E+00  0.3100E+02  0.3100E+02
      8.095  0.0000E+00  0.0000E+00  0.3100E+02  0.3100E+02
      8.192  0.0000E+00  0.0000E+00  0.3100E+02  0.3100E+02
      8.289  0.0000E+00  0.0000E+00  0.3100E+02  0.3100E+02
      8.386  0.0000E+00  0.0000E+00  0.3100E+02  0.3100E+02
      8.482  0.0000E+00  0.0000E+00  0.3100E+02  0.3100E+02
      8.579  0.0000E+00  0.0000E+00  0.3100E+02  0.3100E+02
      8.676  0.0000E+00  0.0000E+00  0.3100E+02  0.3100E+02
      8.773  0.0000E+00  0.0000E+00  0.3100E+02  0.3100E+02
      8.870  0.0000E+00  0.0000E+00  0.3100E+02  0.3100E+02
      8.967  0.0000E+00  0.0000E+00  0.3100E+02  0.3100E+02
      9.064  0.0000E+00  0.0000E+00  0.3100E+02  0.3100E+02
      9.161  0.0000E+00  0.0000E+00  0.3100E+02  0.3100E+02
      9.257  0.0000E+00  0.0000E+00  0.3100E+02  0.3100E+02
      9.354  0.0000E+00  0.0000E+00  0.3100E+02  0.3100E+02
      9.451  0.0000E+00  0.0000E+00  0.3100E+02  0.3100E+02
      9.548  0.0000E+00  0.0000E+00  0.3100E+02  0.3100E+02
      9.645  0.0000E+00  0.0000E+00  0.3100E+02  0.3100E+02
      9.742  0.0000E+00  0.0000E+00  0.3100E+02  0.3100E+02
      9.839  0.0000E+00  0.0000E+00  0.3100E+02  0.3100E+02
      9.936  0.0000E+00  0.0000E+00  0.3100E+02  0.3100E+02
     10.032  0.0000E+00  0.0000E+00  0.3100E+02  0.3100E+02
     10.129  0.0000E+00  0.0000E+00  0.3100E+02  0.3100E+02
     10.226  0.0000E+00  0.0000E+00  0.3100E+02  0.3100E+02
     10.323  0.0000E+00  0.0000E+00  0.3100E+02  0.3100E+02
     10.420  0.0000E+00  0.0000E+00  0.3100E+02  0.3100E+02
     10.517  0.0000E+00  0.0000E+00  0.3100E+02  0.3100E+02
     10.614  0.0000E+00  0.0000E+00  0.3100E+02  0.3100E+02
     10.711  0.0000E+00  0.0000E+00  0.3100E+02  0.3100E+02
     10.807  0.0000E+00  0.0000E+00  0.3100E+02  0.3100E+02
     10.904  0.0000E+00  0.0000E+00  0.3100E+02  0.3100E+02
     11.001  0.0000E+00  0.0000E+00  0.3100E+02  0.3100E+02
     11.098  0.0000E+00  0.0000E+00  0.3100E+02  0.3100E+02
     11.195  0.0000E+00  0.0000E+00  0.3100E+02  0.3100E+02
     11.292  0.0000E+00  0.0000E+00  0.3100E+02  0.3100E+02
     11.389  0.0000E+00  0.0000E+00  0.3100E+02  0.3100E+02
     11.486  0.0000E+00  0.0000E+00  0.3100E+02  0.3100E+02
     11.582  0.0000E+00  0.0000E+00  0.3100E+02  0.3100E+02
     11.679  0.0000E+00  0.0000E+00  0.3100E+02  0.3100E+02
     11.776  0.0000E+00  0.0000E+00  0.3100E+02  0.3100E+02
     11.873  0.0000E+00  0.0000E+00  0.3100E+02  0.3100E+02
     11.970  0.0000E+00  0.0000E+00  0.3100E+02  0.3100E+02
     12.067  0.0000E+00  0.0000E+00  0.3100E+02  0.3100E+02
     12.164  0.0000E+00  0.0000E+00  0.3100E+02  0.3100E+02
     12.261  0.0000E+00  0.0000E+00  0.3100E+02  0.3100E+02
     12.357  0.0000E+00  0.0000E+00  0.3100E+02  0.3100E+02
     12.454  0.0000E+00  0.0000E+00  0.3100E+02  0.3100E+02
     12.551  0.0000E+00  0.0000E+00  0.3100E+02  0.3100E+02
     12.648  0.0000E+00  0.0000E+00  0.3100E+02  0.3100E+02
     12.745  0.0000E+00  0.0000E+00  0.3100E+02  0.3100E+02
     12.842  0.0000E+00  0.0000E+00  0.3100E+02  0.3100E+02
     12.939  0.0000E+00  0.0000E+00  0.3100E+02  0.3100E+02
     13.036  0.0000E+00  0.0000E+00  0.3100E+02  0.3100E+02
     13.133  0.0000E+00  0.0000E+00  0.3100E+02  0.3100E+02
     13.229  0.0000E+00  0.0000E+00  0.3100E+02  0.3100E+02
     13.326  0.0000E+00  0.0000E+00  0.3100E+02  0.3100E+02
     13.423  0.0000E+00  0.0000E+00  0.3100E+02  0.3100E+02
     13.520  0.0000E+00  0.0000E+00  0.3100E+02  0.3100E+02
     13.617  0.0000E+00  0.0000E+00  0.3100E+02  0.3100E+02
     13.714  0.0000E+00  0.0000E+00  0.3100E+02  0.3100E+02
     13.811  0.0000E+00  0.0000E+00  0.3100E+02  0.3100E+02
     13.908  0.0000E+00  0.0000E+00  0.3100E+02  0.3100E+02
     14.004  0.0000E+00  0.0000E+00  0.3100E+02  0.3100E+02
     14.101  0.0000E+00  0.0000E+00  0.3100E+02  0.3100E+02
     14.198  0.0000E+00  0.0000E+00  0.3100E+02  0.3100E+02
     14.295  0.0000E+00  0.0000E+00  0.3100E+02  0.3100E+02
     14.392  0.0000E+00  0.0000E+00  0.3100E+02  0.3100E+02
     14.489  0.0000E+00  0.0000E+00  0.3100E+02  0.3100E+02
     14.586  0.0000E+00  0.0000E+00  0.3100E+02  0.3100E+02
     14.683  0.0000E+00  0.0000E+00  0.3100E+02  0.3100E+02
     14.779  0.0000E+00  0.0000E+00  0.3100E+02  0.3100E+02
     14.876  0.0000E+00  0.0000E+00  0.3100E+02  0.3100E+02
     14.973  0.0000E+00  0.0000E+00  0.3100E+02  0.3100E+02
     15.070  0.0000E+00  0.0000E+00  0.3100E+02  0.3100E+02
     15.167  0.0000E+00  0.0000E+00  0.3100E+02  0.3100E+02
     15.264  0.0000E+00  0.0000E+00  0.3100E+02  0.3100E+02
     15.361  0.0000E+00  0.0000E+00  0.3100E+02  0.3100E+02
     15.458  0.0000E+00  0.0000E+00  0.3100E+02  0.3100E+02
     15.554  0.0000E+00  0.0000E+00  0.3100E+02  0.3100E+02
     15.651  0.0000E+00  0.0000E+00  0.3100E+02  0.3100E+02
     15.748  0.0000E+00  0.0000E+00  0.3100E+02  0.3100E+02
     15.845  0.0000E+00  0.0000E+00  0.3100E+02  0.3100E+02
     15.942  0.0000E+00  0.0000E+00  0.3100E+02  0.3100E+02
     16.039  0.0000E+00  0.0000E+00  0.3100E+02  0.3100E+02
     16.136  0.0000E+00  0.0000E+00  0.3100E+02  0.3100E+02
     16.233  0.0000E+00  0.0000E+00  0.3100E+02  0.3100E+02
     16.329  0.0000E+00  0.0000E+00  0.3100E+02  0.3100E+02
     16.426  0.0000E+00  0.0000E+00  0.3100E+02  0.3100E+02
     16.523  0.0000E+00  0.0000E+00  0.3100E+02  0.3100E+02
     16.620  0.0000E+00  0.0000E+00  0.3100E+02  0.3100E+02
     16.717  0.0000E+00  0.0000E+00  0.3100E+02  0.3100E+02
     16.814  0.0000E+00  0.0000E+00  0.3100E+02  0.3100E+02
     16.911  0.0000E+00  0.0000E+00  0.3100E+02  0.3100E+02
     17.008  0.0000E+00  0.0000E+00  0.3100E+02  0.3100E+02
     17.104  0.0000E+00  0.0000E+00  0.3100E+02  0.3100E+02
     17.201  0.0000E+00  0.0000E+00  0.3100E+02  0.3100E+02
     17.298  0.0000E+00  0.0000E+00  0.3100E+02  0.3100E+02
     17.395  0.0000E+00  0.0000E+00  0.3100E+02  0.3100E+02
     17.492  0.0000E+00  0.0000E+00  0.3100E+02  0.3100E+02
     17.589  0.0000E+00  0.0000E+00  0.3100E+02  0.3100E+02
     17.686  0.0000E+00  0.0000E+00  0.3100E+02  0.3100E+02
     17.783  0.0000E+00  0.0000E+00  0.3100E+02  0.3100E+02
     17.879  0.0000E+00  0.0000E+00  0.3100E+02  0.3100E+02
     17.976  0.0000E+00  0.0000E+00  0.3100E+02  0.3100E+02
     18.073  0.0000E+00  0.0000E+00  0.3100E+02  0.3100E+02
     18.170  0.0000E+00  0.0000E+00  0.3100E+02  0.3100E+02
     18.267  0.0000E+00  0.0000E+00  0.3100E+02  0.3100E+02
     18.364  0.0000E+00  0.0000E+00  0.3100E+02  0.3100E+02
     18.461  0.0000E+00  0.0000E+00  0.3100E+02  0.3100E+02
     18.558  0.0000E+00  0.0000E+00  0.3100E+02  0.3100E+02
     18.654  0.0000E+00  0.0000E+00  0.3100E+02  0.3100E+02
     18.751  0.0000E+00  0.0000E+00  0.3100E+02  0.3100E+02
     18.848  0.0000E+00  0.0000E+00  0.3100E+02  0.3100E+02
