    6    6    1    2
  0.2524887E+02  0.2820000E-09  0.2820000E-09  0.1905000E-08  0.5000000E-15
  1.000000000000000E-004
  CAR 
 Crystal                                 
   48    6   31
 
  0.0000000E+00  0.0000000E+00  0.0000000E+00  0.4000000E-01
   1       -7.599303     -7.447695
   2       -6.616324     -6.362973
   3       -6.216191     -5.123798
   4       -5.288516     -4.888344
   5       -4.577292     -3.547244
   6       -4.376858     -3.017362
   7       -4.297500     -2.629749
   8       -3.973547     -2.546537
   9       -3.423066     -1.233528
  10       -2.904373     -1.218185
  11       -2.265987     -0.756742
  12       -2.265987     -0.633797
  13       -2.246850     -0.633797
  14       -2.056163     -0.288598
  15       -2.056125     -0.288597
  16       -1.884417      0.227419
  17       -1.884366      0.227430
  18       -1.690192      0.298785
  19       -1.437094      0.756162
  20       -1.331481      0.820226
  21       -1.246636      1.190454
  22       -1.241320      1.190456
  23       -1.241320      1.353687
  24       -0.580259      1.647459
  25       -0.570695      1.697904
  26       -0.163537      1.697905
  27       -0.153381      1.739131
  28       -0.153381      2.034108
  29       -0.081574      2.090953
  30       -0.081573      2.090952
  31        0.085341      2.246262
 
  0.2000000E+00  0.0000000E+00  0.0000000E+00  0.1600000E+00
   1       -6.816740     -6.651340
   2       -5.838705     -5.554562
   3       -5.605250     -4.501377
   4       -4.788285     -4.262606
   5       -4.338163     -3.271763
   6       -4.148916     -2.736026
   7       -3.921084     -2.390351
   8       -3.864512     -2.194034
   9       -3.175899     -1.538403
  10       -3.012666     -1.256377
  11       -2.487846     -1.149364
  12       -2.289797     -0.534474
  13       -2.129515     -0.209383
  14       -2.076880     -0.140479
  15       -1.884381      0.244005
  16       -1.704364      0.333353
  17       -1.623236      0.485274
  18       -1.534123      0.628603
  19       -1.187438      0.952328
  20       -1.108771      0.975270
  21       -1.083168      1.207746
  22       -0.818984      1.440640
  23       -0.811490      1.451598
  24       -0.716224      1.598603
  25       -0.657411      1.658171
  26       -0.654544      1.793319
  27       -0.023475      1.965063
  28        0.010986      2.224174
  29        0.165264      2.322339
  30        0.656049      2.333552
  31        0.799583      2.582311
 
  0.4000000E+00  0.0000000E+00  0.0000000E+00  0.1600000E+00
   1       -5.071204     -4.635380
   2       -4.561395     -3.808781
   3       -4.473666     -3.374321
   4       -4.307320     -3.292785
   5       -4.076388     -2.844343
   6       -3.769387     -2.537769
   7       -3.509126     -2.346965
   8       -3.151658     -1.703690
   9       -3.003991     -1.430966
  10       -2.858869     -1.188846
  11       -2.640752     -1.145076
  12       -2.338013     -1.095545
  13       -2.121992     -0.766468
  14       -2.062795     -0.434599
  15       -1.965258     -0.180380
  16       -1.922078      0.061363
  17       -1.879887      0.070671
  18       -1.515925      0.166459
  19       -1.101862      0.260269
  20       -1.050185      0.830663
  21       -0.956058      1.037280
  22       -0.882922      1.127706
  23       -0.835902      1.298920
  24       -0.769813      1.404869
  25       -0.596567      1.535259
  26       -0.500398      1.725746
  27       -0.347234      1.922061
  28        0.113712      1.998352
  29        0.197988      2.219113
  30        0.350551      2.358989
  31        0.831118      2.456313
 
  0.2000000E+00  0.2000000E+00  0.0000000E+00  0.1600000E+00
   1       -6.094743     -5.904186
   2       -5.211554     -4.855469
   3       -4.969046     -3.838117
   4       -4.273889     -3.667935
   5       -3.926338     -2.878637
   6       -3.774751     -2.384454
   7       -3.659870     -2.055021
   8       -3.487962     -1.927020
   9       -3.251891     -1.629660
  10       -3.088629     -1.406078
  11       -2.864187     -1.380237
  12       -2.727839     -1.179881
  13       -2.634585     -1.012086
  14       -2.313811     -0.886387
  15       -2.047667     -0.752253
  16       -2.010323     -0.151542
  17       -1.910736      0.252958
  18       -1.901427      0.491465
  19       -1.309591      0.643495
  20       -1.158922      0.901151
  21       -0.932272      1.037785
  22       -0.909171      1.184946
  23       -0.856994      1.426386
  24       -0.617140      1.581745
  25       -0.493710      1.613267
  26       -0.384110      1.619538
  27       -0.200021      1.715200
  28       -0.080582      1.785468
  29        0.000521      1.826491
  30        0.074909      2.031337
  31        0.522655      2.325122
 
  0.4000000E+00  0.2000000E+00  0.0000000E+00  0.3200000E+00
   1       -4.585117     -4.079698
   2       -4.288205     -3.424014
   3       -4.056447     -2.896871
   4       -3.926894     -2.777584
   5       -3.681098     -2.490813
   6       -3.568760     -2.234926
   7       -3.194847     -1.858422
   8       -3.127397     -1.822105
   9       -3.058351     -1.588103
  10       -3.008025     -1.386319
  11       -2.969006     -1.360773
  12       -2.791190     -1.249846
  13       -2.496693     -0.921760
  14       -2.274134     -0.817643
  15       -2.194234     -0.706727
  16       -2.072198     -0.570835
  17       -1.938414     -0.119925
  18       -1.751685      0.333754
  19       -1.694071      0.663454
  20       -1.391761      0.750557
  21       -1.232540      0.788100
  22       -1.060169      1.382966
  23       -0.914991      1.432333
  24       -0.898891      1.510277
  25       -0.678735      1.628543
  26       -0.628255      1.677871
  27       -0.558726      1.919706
  28       -0.215021      1.960797
  29       -0.108320      2.158583
  30        0.234064      2.247275
  31        0.417916      2.270775
 
  0.4000000E+00  0.4000000E+00  0.0000000E+00  0.1600000E+00
   1       -4.263240     -3.240465
   2       -4.089869     -2.862765
   3       -3.973679     -2.752409
   4       -3.747255     -2.715782
   5       -3.641720     -2.308199
   6       -3.277036     -1.841459
   7       -3.229458     -1.758493
   8       -3.154738     -1.686013
   9       -3.094401     -1.685776
  10       -2.962014     -1.508690
  11       -2.885969     -1.496356
  12       -2.710804     -1.257436
  13       -2.563633     -0.956503
  14       -2.553586     -0.897221
  15       -1.904389     -0.577982
  16       -1.816451     -0.034760
  17       -1.323377      0.419240
  18       -1.258144      0.690680
  19       -1.241890      1.202042
  20       -1.193549      1.251347
  21       -0.925523      1.263597
  22       -0.788570      1.303396
  23       -0.695740      1.625370
  24       -0.684991      1.671244
  25       -0.670764      1.809229
  26       -0.544546      1.845027
  27       -0.513460      1.927331
  28       -0.226674      1.933371
  29       -0.155308      2.090761
  30        0.017510      2.240218
  31        0.664732      2.328352
