       N       E                     dE             d eps       ncg     rms          rms(c)
DAV:   1     0.336377669406E+03    0.33638E+03   -0.16461E+04   744   0.122E+03
DAV:   2    -0.189083132826E+02   -0.35529E+03   -0.34055E+03   744   0.354E+02
DAV:   3    -0.471554419588E+02   -0.28247E+02   -0.26050E+02  1135   0.111E+02
DAV:   4    -0.495326580918E+02   -0.23772E+01   -0.22726E+01  1048   0.367E+01
DAV:   5    -0.497400239335E+02   -0.20737E+00   -0.20156E+00  1104   0.659E+00
DAV:   6    -0.497554302232E+02   -0.15406E-01   -0.15299E-01  1049   0.136E+00
DAV:   7    -0.497569899359E+02   -0.15597E-02   -0.15272E-02   979   0.264E-01
DAV:   8    -0.497570965652E+02   -0.10663E-03   -0.10657E-03   614   0.612E-02
DAV:   9    -0.497571022376E+02   -0.56723E-05   -0.56715E-05   554   0.255E-02
DAV:  10    -0.497571031106E+02   -0.87306E-06   -0.87308E-06   512   0.148E-02    0.304E+01
RMM:  11    -0.183069920902E+03   -0.13331E+03   -0.38509E+02  1171   0.173E+02    0.105E+02
RMM:  12    -0.786071266203E+02    0.10446E+03   -0.79149E+01   824   0.781E+01    0.553E+01
RMM:  13    -0.516649408829E+02    0.26942E+02   -0.98203E+01   894   0.881E+01    0.434E+01
RMM:  14    -0.530668629605E+02   -0.14019E+01   -0.48966E+01   844   0.548E+01    0.424E+01
RMM:  15    -0.534553991637E+02   -0.38854E+00   -0.22724E+01   887   0.441E+01    0.453E+01
RMM:  16    -0.510943082891E+02    0.23611E+01   -0.16271E+01   800   0.336E+01    0.459E+01
RMM:  17    -0.429824310737E+02    0.81119E+01   -0.40027E+00   806   0.190E+01    0.271E+01
RMM:  18    -0.413637832623E+02    0.16186E+01   -0.33553E+00   865   0.156E+01    0.222E+01
RMM:  19    -0.406096822593E+02    0.75410E+00   -0.58207E-01   985   0.525E+00    0.160E+01
RMM:  20    -0.408538977873E+02   -0.24422E+00   -0.26301E-01   965   0.375E+00    0.161E+01
RMM:  21    -0.408224899888E+02    0.31408E-01   -0.12263E-01   903   0.287E+00    0.154E+01
RMM:  22    -0.408554472547E+02   -0.32957E-01   -0.14555E-01   928   0.268E+00    0.140E+01
RMM:  23    -0.408965145437E+02   -0.41067E-01   -0.14943E-02  1146   0.966E-01    0.141E+01
RMM:  24    -0.407823789767E+02    0.11414E+00   -0.24139E-03   985   0.724E-01    0.138E+01
RMM:  25    -0.409433307452E+02   -0.16095E+00   -0.20790E-01   844   0.359E+00    0.122E+01
RMM:  26    -0.409671924430E+02   -0.23862E-01   -0.38919E-01   928   0.390E+00    0.104E+01
RMM:  27    -0.410815026883E+02   -0.11431E+00   -0.10232E-01  1092   0.169E+00    0.110E+01
RMM:  28    -0.411201132987E+02   -0.38611E-01   -0.27197E-02  1114   0.668E-01    0.111E+01
RMM:  29    -0.411595593378E+02   -0.39446E-01   -0.71016E-02   931   0.171E+00    0.107E+01
RMM:  30    -0.412144605013E+02   -0.54901E-01   -0.51778E-02   995   0.150E+00    0.105E+01
RMM:  31    -0.413215320572E+02   -0.10707E+00   -0.63597E-02   932   0.184E+00    0.108E+01
RMM:  32    -0.412519925394E+02    0.69540E-01   -0.18611E-01   927   0.253E+00    0.814E+00
RMM:  33    -0.412151507484E+02    0.36842E-01   -0.16406E-02  1004   0.166E+00    0.727E+00
RMM:  34    -0.411642802168E+02    0.50871E-01   -0.33794E-01   898   0.327E+00    0.518E+00
RMM:  35    -0.411608701881E+02    0.34100E-02   -0.18407E-01  1008   0.160E+00    0.469E+00
RMM:  36    -0.411855190373E+02   -0.24649E-01   -0.92826E-02   955   0.217E+00    0.394E+00
RMM:  37    -0.412524594591E+02   -0.66940E-01   -0.55900E-02  1021   0.120E+00    0.416E+00
RMM:  38    -0.413274405922E+02   -0.74981E-01   -0.12795E-01   925   0.200E+00    0.298E+00
RMM:  39    -0.413658918018E+02   -0.38451E-01   -0.50555E-02   972   0.158E+00    0.357E+00
RMM:  40    -0.413929055401E+02   -0.27014E-01   -0.21025E-02   978   0.103E+00    0.236E+00
RMM:  41    -0.414314309035E+02   -0.38525E-01   -0.45530E-02   968   0.963E-01    0.180E+00
RMM:  42    -0.414374917096E+02   -0.60608E-02   -0.80305E-04  1107   0.446E-01    0.175E+00
RMM:  43    -0.414533546168E+02   -0.15863E-01   -0.32873E-02   954   0.751E-01    0.138E+00
RMM:  44    -0.414886164733E+02   -0.35262E-01   -0.74472E-03  1003   0.690E-01    0.135E+00
RMM:  45    -0.415310261086E+02   -0.42410E-01   -0.40660E-02   981   0.776E-01    0.127E+00
RMM:  46    -0.415669012922E+02   -0.35875E-01   -0.64524E-03   996   0.628E-01    0.117E+00
RMM:  47    -0.415708411332E+02   -0.39398E-02   -0.38222E-03   978   0.309E-01    0.104E+00
RMM:  48    -0.415731218975E+02   -0.22808E-02   -0.37352E-03   877   0.236E-01    0.937E-01
RMM:  49    -0.415726924799E+02    0.42942E-03   -0.46354E-03   709   0.162E-01    0.908E-01
RMM:  50    -0.415731940850E+02   -0.50161E-03   -0.44065E-03   839   0.223E-01    0.915E-01
RMM:  51    -0.415804848822E+02   -0.72908E-02   -0.81280E-03   913   0.274E-01    0.896E-01
RMM:  52    -0.415975487507E+02   -0.17064E-01   -0.91878E-03   917   0.431E-01    0.880E-01
RMM:  53    -0.416105638413E+02   -0.13015E-01   -0.10765E-02   912   0.374E-01    0.725E-01
RMM:  54    -0.416215382794E+02   -0.10974E-01   -0.57687E-03   968   0.309E-01    0.476E-01
RMM:  55    -0.416285390470E+02   -0.70008E-02   -0.82579E-03   906   0.228E-01    0.403E-01
RMM:  56    -0.416392256678E+02   -0.10687E-01   -0.77485E-03   946   0.415E-01    0.199E-01
RMM:  57    -0.416465559667E+02   -0.73303E-02   -0.15463E-02   922   0.216E-01    0.164E-01
RMM:  58    -0.416501526718E+02   -0.35967E-02   -0.24201E-03   679   0.133E-01    0.150E-01
RMM:  59    -0.416524610342E+02   -0.23084E-02   -0.27541E-03   629   0.123E-01    0.140E-01
RMM:  60    -0.416541267107E+02   -0.16657E-02   -0.69329E-04   609   0.905E-02
   1 F= -.41654127E+02 E0= -.41653967E+02  d E =-.637263E-03  mag=    12.5236
