<?xml version="1.0" encoding="ISO-8859-1"?>
<modeling>
 <generator>
  <i name="program" type="string">vasp </i>
  <i name="version" type="string">5.3.3  </i>
  <i name="subversion" type="string">18Dez12 (build Sep  7 2015 22:32:56) complex                          parallel </i>
  <i name="platform" type="string">LinuxIFC </i>
  <i name="date" type="string">2002 03 05 </i>
  <i name="time" type="string">02:27:46 </i>
 </generator>
 <incar>
  <i type="string" name="SYSTEM"> Crystal</i>
  <i type="int" name="ISTART">     0</i>
  <i type="string" name="PREC">normal</i>
  <i type="string" name="ALGO"> fast</i>
  <i type="int" name="NSIM">     4</i>
  <i type="int" name="ISPIN">     2</i>
  <i type="int" name="ICHARG">     2</i>
  <i type="int" name="NELMDL">   -10</i>
  <i type="int" name="NELMIN">     4</i>
  <i type="int" name="IBRION">     2</i>
  <i name="EDIFF">      0.00001000</i>
  <i name="EDIFFG">     -0.01000000</i>
  <i type="int" name="NSW">   300</i>
  <i name="ENCUT">    350.00000000</i>
  <i type="logical" name="LREAL"> F  </i>
  <i type="int" name="ISMEAR">     2</i>
  <i name="SIGMA">      0.10000000</i>
  <i type="logical" name="LWAVE"> F  </i>
  <i type="logical" name="LCHARG"> F  </i>
 </incar>
 <kpoints>
  <generation param="Gamma">
   <v type="int" name="divisions">       5        5        1 </v>
   <v name="usershift">      0.00000000       0.00000000       0.00000000 </v>
   <v name="genvec1">      0.20000000       0.00000000       0.00000000 </v>
   <v name="genvec2">      0.00000000       0.20000000       0.00000000 </v>
   <v name="genvec3">      0.00000000       0.00000000       1.00000000 </v>
   <v name="shift">      0.00000000       0.00000000       0.00000000 </v>
  </generation>
  <varray name="kpointlist" >
   <v>       0.00000000       0.00000000       0.00000000 </v>
   <v>       0.20000000       0.00000000       0.00000000 </v>
   <v>       0.40000000       0.00000000       0.00000000 </v>
   <v>       0.20000000       0.20000000       0.00000000 </v>
   <v>       0.40000000       0.20000000       0.00000000 </v>
   <v>       0.40000000       0.40000000       0.00000000 </v>
  </varray>
  <varray name="weights" >
   <v>       0.04000000 </v>
   <v>       0.16000000 </v>
   <v>       0.16000000 </v>
   <v>       0.16000000 </v>
   <v>       0.32000000 </v>
   <v>       0.16000000 </v>
  </varray>
 </kpoints>
 <parameters>
  <separator name="general" >
   <i type="string" name="SYSTEM">Crystal</i>
   <i type="logical" name="LCOMPAT"> F  </i>
  </separator>
  <separator name="electronic" >
   <i type="string" name="PREC">normal</i>
   <i name="ENMAX">    350.00000000</i>
   <i name="ENAUG">    511.36800000</i>
   <i name="EDIFF">      0.00001000</i>
   <i type="int" name="IALGO">    68</i>
   <i type="int" name="IWAVPR">    11</i>
   <i type="int" name="NBANDS">    31</i>
   <i name="NELECT">     48.00000000</i>
   <i type="int" name="TURBO">     0</i>
   <i type="int" name="IRESTART">     0</i>
   <i type="int" name="NREBOOT">     0</i>
   <i type="int" name="NMIN">     0</i>
   <i name="EREF">      0.00000000</i>
   <separator name="electronic smearing" >
    <i type="int" name="ISMEAR">     2</i>
    <i name="SIGMA">      0.10000000</i>
    <i name="KSPACING">      0.50000000</i>
    <i type="logical" name="KGAMMA"> T  </i>
   </separator>
   <separator name="electronic projectors" >
    <i type="logical" name="LREAL"> F  </i>
    <v name="ROPT">      0.00000000</v>
    <i type="int" name="LMAXPAW">  -100</i>
    <i type="int" name="LMAXMIX">     2</i>
    <i type="logical" name="NLSPLINE"> F  </i>
   </separator>
   <separator name="electronic startup" >
    <i type="int" name="ISTART">     0</i>
    <i type="int" name="ICHARG">     2</i>
    <i type="int" name="INIWAV">     1</i>
   </separator>
   <separator name="electronic spin" >
    <i type="int" name="ISPIN">     2</i>
    <i type="logical" name="LNONCOLLINEAR"> F  </i>
    <v name="MAGMOM">      1.00000000      1.00000000      1.00000000      1.00000000      1.00000000      1.00000000</v>
    <i name="NUPDOWN">     -1.00000000</i>
    <i type="logical" name="LSORBIT"> F  </i>
    <v name="SAXIS">      0.00000000      0.00000000      1.00000000</v>
    <i type="logical" name="LSPIRAL"> F  </i>
    <v name="QSPIRAL">      0.00000000      0.00000000      0.00000000</v>
    <i type="logical" name="LZEROZ"> F  </i>
   </separator>
   <separator name="electronic exchange-correlation" >
    <i type="logical" name="LASPH"> F  </i>
    <i type="logical" name="LMETAGGA"> F  </i>
   </separator>
   <separator name="electronic convergence" >
    <i type="int" name="NELM">    60</i>
    <i type="int" name="NELMDL">   -10</i>
    <i type="int" name="NELMIN">     4</i>
    <i name="ENINI">    350.00000000</i>
    <separator name="electronic convergence detail" >
     <i type="logical" name="LDIAG"> T  </i>
     <i type="logical" name="LSUBROT"> T  </i>
     <i name="WEIMIN">      0.00100000</i>
     <i name="EBREAK">      0.00000008</i>
     <i name="DEPER">      0.30000000</i>
     <i type="int" name="NRMM">     4</i>
     <i name="TIME">      0.40000000</i>
    </separator>
   </separator>
   <separator name="electronic mixer" >
    <i name="AMIX">      0.40000000</i>
    <i name="BMIX">      1.00000000</i>
    <i name="AMIN">      0.10000000</i>
    <i name="AMIX_MAG">      1.60000000</i>
    <i name="BMIX_MAG">      1.00000000</i>
    <separator name="electronic mixer details" >
     <i type="int" name="IMIX">     4</i>
     <i type="int" name="MAXMIX">   -45</i>
     <i name="WC">    100.00000000</i>
     <i type="int" name="INIMIX">     1</i>
     <i type="int" name="MIXPRE">     1</i>
     <i type="int" name="MREMOVE">     5</i>
    </separator>
   </separator>
   <separator name="electronic dipolcorrection" >
    <i type="logical" name="LDIPOL"> F  </i>
    <i type="logical" name="LMONO"> F  </i>
    <i type="int" name="IDIPOL">     0</i>
    <i name="EPSILON">      1.00000000</i>
    <v name="DIPOL">   -100.00000000   -100.00000000   -100.00000000</v>
    <i name="EFIELD">      0.00000000</i>
   </separator>
  </separator>
  <separator name="grids" >
   <i type="int" name="NGX">    14</i>
   <i type="int" name="NGY">    14</i>
   <i type="int" name="NGZ">    90</i>
   <i type="int" name="NGXF">    28</i>
   <i type="int" name="NGYF">    28</i>
   <i type="int" name="NGZF">   180</i>
   <i type="logical" name="ADDGRID"> F  </i>
  </separator>
  <separator name="ionic" >
   <i type="int" name="NSW">   300</i>
   <i type="int" name="IBRION">     2</i>
   <i type="int" name="ISIF">     2</i>
   <i name="PSTRESS">      0.00000000</i>
   <i name="EDIFFG">     -0.01000000</i>
   <i type="int" name="NFREE">     1</i>
   <i name="POTIM">      0.50000000</i>
   <i name="SMASS">     -3.00000000</i>
   <i name="SCALEE">      1.00000000</i>
  </separator>
  <separator name="ionic md" >
   <i name="TEBEG">      0.00010000</i>
   <i name="TEEND">      0.00010000</i>
   <i type="int" name="NBLOCK">     1</i>
   <i type="int" name="KBLOCK">   300</i>
   <i type="int" name="NPACO">   256</i>
   <i name="APACO">     16.00000000</i>
  </separator>
  <separator name="symmetry" >
   <i type="int" name="ISYM">     2</i>
   <i name="SYMPREC">      0.00001000</i>
  </separator>
  <separator name="dos" >
   <i type="logical" name="LORBIT"> F  </i>
   <v name="RWIGS">     -1.00000000</v>
   <i type="int" name="NEDOS">   301</i>
   <i name="EMIN">     10.00000000</i>
   <i name="EMAX">    -10.00000000</i>
   <i name="EFERMI">      0.00000000</i>
  </separator>
  <separator name="writing" >
   <i type="int" name="NWRITE">     2</i>
   <i type="logical" name="LWAVE"> F  </i>
   <i type="logical" name="LCHARG"> F  </i>
   <i type="logical" name="LPARD"> F  </i>
   <i type="logical" name="LVTOT"> F  </i>
   <i type="logical" name="LVHAR"> F  </i>
   <i type="logical" name="LELF"> F  </i>
   <i type="logical" name="LOPTICS"> F  </i>
   <v name="STM">      0.00000000      0.00000000      0.00000000      0.00000000      0.00000000      0.00000000      0.00000000</v>
  </separator>
  <separator name="performance" >
   <i type="int" name="NPAR">     1</i>
   <i type="int" name="NSIM">     4</i>
   <i type="int" name="NBLK">    -1</i>
   <i type="logical" name="LPLANE"> T  </i>
   <i type="logical" name="LSCALAPACK"> F  </i>
   <i type="logical" name="LSCAAWARE"> F  </i>
   <i type="logical" name="LSCALU"> F  </i>
   <i type="logical" name="LASYNC"> F  </i>
   <i type="logical" name="LORBITALREAL"> F  </i>
  </separator>
  <separator name="miscellaneous" >
   <i type="int" name="IDIOT">     3</i>
   <i type="logical" name="LMUSIC"> F  </i>
   <v name="POMASS">     55.84700000</v>
   <v name="DARWINR">      0.00000000</v>
   <v name="DARWINV">      1.00000000</v>
   <i type="logical" name="LCORR"> T  </i>
  </separator>
  <i type="logical" name="GGA_COMPAT"> T  </i>
  <i type="logical" name="LBERRY"> F  </i>
  <i type="int" name="ICORELEVEL">     0</i>
  <i type="logical" name="LDAU"> F  </i>
  <i type="int" name="I_CONSTRAINED_M">     0</i>
  <separator name="electronic exchange-correlation" >
   <i type="string" name="GGA">--</i>
   <i type="int" name="VOSKOWN">     0</i>
   <i type="logical" name="LHFCALC"> F  </i>
   <i type="string" name="PRECFOCK"></i>
   <i type="logical" name="LSYMGRAD"> F  </i>
   <i type="logical" name="LHFONE"> F  </i>
   <i type="logical" name="LRHFCALC"> F  </i>
   <i type="logical" name="LTHOMAS"> F  </i>
   <i type="logical" name="LMODELHF"> F  </i>
   <i name="ENCUT4O">     -1.00000000</i>
   <i type="int" name="EXXOEP">     0</i>
   <i type="int" name="FOURORBIT">     0</i>
   <i name="AEXX">      0.00000000</i>
   <i name="HFALPHA">      0.00000000</i>
   <i name="MCALPHA">      0.00000000</i>
   <i name="ALDAX">      1.00000000</i>
   <i name="AGGAX">      1.00000000</i>
   <i name="ALDAC">      1.00000000</i>
   <i name="AGGAC">      1.00000000</i>
   <i type="int" name="NKREDX">     1</i>
   <i type="int" name="NKREDY">     1</i>
   <i type="int" name="NKREDZ">     1</i>
   <i type="logical" name="SHIFTRED"> F  </i>
   <i type="logical" name="ODDONLY"> F  </i>
   <i type="logical" name="EVENONLY"> F  </i>
   <i type="int" name="LMAXFOCK">     0</i>
   <i type="int" name="NMAXFOCKAE">     0</i>
   <i type="logical" name="LFOCKAEDFT"> F  </i>
   <i name="HFSCREEN">      0.00000000</i>
   <i name="HFSCREENC">      0.00000000</i>
   <i type="int" name="NBANDSGWLOW">     0</i>
  </separator>
  <separator name="vdW DFT" >
   <i type="logical" name="LUSE_VDW"> F  </i>
   <i name="Zab_VDW">     -0.84910000</i>
   <i name="PARAM1">      0.12340000</i>
   <i name="PARAM2">      1.00000000</i>
   <i name="PARAM3">      0.00000000</i>
  </separator>
  <separator name="model GW" >
   <i type="int" name="MODEL_GW">     0</i>
   <i name="MODEL_EPS0">     15.16001947</i>
   <i name="MODEL_ALPHA">      1.00000000</i>
  </separator>
  <separator name="linear response parameters" >
   <i type="logical" name="LEPSILON"> F  </i>
   <i type="logical" name="LRPA"> F  </i>
   <i type="logical" name="LNABLA"> F  </i>
   <i type="logical" name="LVEL"> F  </i>
   <i type="int" name="KINTER">     0</i>
   <i name="CSHIFT">      0.10000000</i>
   <i name="OMEGAMAX">     -1.00000000</i>
   <i name="DEG_THRESHOLD">      0.00200000</i>
  </separator>
  <separator name="orbital magnetization" >
   <i type="logical" name="NUCIND"> F  </i>
   <v name="MAGPOS">      0.00000000      0.00000000      0.00000000</v>
   <i type="logical" name="LNICSALL"> T  </i>
   <i type="logical" name="ORBITALMAG"> F  </i>
   <i type="logical" name="LMAGBLOCH"> F  </i>
   <i type="logical" name="LCHIMAG"> F  </i>
   <i type="logical" name="LGAUGE"> T  </i>
   <i type="int" name="MAGATOM">     0</i>
   <v name="MAGDIPOL">      0.00000000      0.00000000      0.00000000</v>
   <v name="AVECCONST">      0.00000000      0.00000000      0.00000000</v>
  </separator>
  <separator name="response functions" >
   <i type="logical" name="LADDER"> F  </i>
   <i type="logical" name="LFXC"> F  </i>
   <i type="logical" name="LHARTREE"> T  </i>
   <i type="int" name="IBSE">     0</i>
   <i type="logical" name="LTCTE"> F  </i>
   <i type="logical" name="LTETE"> F  </i>
   <i type="logical" name="LTRIPLET"> F  </i>
   <i type="logical" name="LFXCEPS"> F  </i>
   <i type="logical" name="L2ORDER"> F  </i>
   <i type="logical" name="LUSEW"> F  </i>
   <i name="ENCUTGW">     -2.00000000</i>
   <i name="ENCUTGWSOFT">     -2.00000000</i>
   <i name="ENCUTLF">     -1.00000000</i>
   <i type="int" name="LMAXMP2">    -1</i>
   <i name="SCISSOR">      0.00000000</i>
   <i type="int" name="NOMEGA">     0</i>
   <i type="int" name="NOMEGAR">     0</i>
   <i type="int" name="NBANDSGW">    -1</i>
   <i type="int" name="NBANDSO">    -1</i>
   <i type="int" name="NBANDSV">    -1</i>
   <i type="int" name="NELM">     1</i>
   <i type="int" name="DIM">     3</i>
   <i type="int" name="ANTIRES">     0</i>
   <i name="OMEGAMAX">    -30.00000000</i>
   <i name="OMEGATL">   -200.00000000</i>
   <i type="int" name="OMEGAGRID">     0</i>
   <i name="CSHIFT">     -0.10000000</i>
   <i type="logical" name="SELFENERGY"> F  </i>
   <i type="logical" name="LSPECTRAL"> F  </i>
   <i type="logical" name="ODDONLYGW"> F  </i>
   <i type="logical" name="EVENONLYGW"> F  </i>
   <i type="int" name="NKREDLFX">     1</i>
   <i type="int" name="NKREDLFY">     1</i>
   <i type="int" name="NKREDLFZ">     1</i>
   <i type="int" name="MAXMEM">  1800</i>
   <i type="int" name="TELESCOPE">     0</i>
  </separator>
 </parameters>
 <atominfo>
  <atoms>       6 </atoms>
  <types>       1 </types>
  <array name="atoms" >
   <dimension dim="1">ion</dimension>
   <field type="string">element</field>
   <field type="int">atomtype</field>
   <set>
    <rc><c>Fe</c><c>   1</c></rc>
    <rc><c>Fe</c><c>   1</c></rc>
    <rc><c>Fe</c><c>   1</c></rc>
    <rc><c>Fe</c><c>   1</c></rc>
    <rc><c>Fe</c><c>   1</c></rc>
    <rc><c>Fe</c><c>   1</c></rc>
   </set>
  </array>
  <array name="atomtypes" >
   <dimension dim="1">type</dimension>
   <field type="int">atomspertype</field>
   <field type="string">element</field>
   <field>mass</field>
   <field>valence</field>
   <field type="string">pseudopotential</field>
   <set>
    <rc><c>   6</c><c>Fe</c><c>     55.84700000</c><c>      8.00000000</c><c>  PAW_PBE Fe 06Sep2000                  </c></rc>
   </set>
  </array>
 </atominfo>
 <structure name="initialpos" >
  <crystal>
   <varray name="basis" >
    <v>       2.82084000       0.00000000       0.00000000 </v>
    <v>       0.00000000       2.82084000       0.00000000 </v>
    <v>       0.00000000       0.00000000      19.05210000 </v>
   </varray>
   <i name="volume">    151.60019471 </i>
   <varray name="rec_basis" >
    <v>       0.35450433       0.00000000       0.00000000 </v>
    <v>       0.00000000       0.35450433       0.00000000 </v>
    <v>       0.00000000       0.00000000       0.05248765 </v>
   </varray>
  </crystal>
  <varray name="positions" >
   <v>       0.00000000       0.00000000       0.00000000 </v>
   <v>       0.50000000       0.50000000       0.07402963 </v>
   <v>       0.00000000       0.00000000       0.14805927 </v>
   <v>       0.50000000       0.50000000       0.22208890 </v>
   <v>       0.00000000       0.00000000       0.29611854 </v>
   <v>       0.50000000       0.50000000       0.37014817 </v>
  </varray>
  <varray name="selective"  type="logical" >
   <v type="logical" >  F  F  F </v>
   <v type="logical" >  F  F  F </v>
   <v type="logical" >  T  T  T </v>
   <v type="logical" >  T  T  T </v>
   <v type="logical" >  T  T  T </v>
   <v type="logical" >  T  T  T </v>
  </varray>
  <nose>
   <v>      -3.00000000       0.00000000       0.00010000       0.00010000 </v>
  </nose>
 </structure>
 <calculation>
  <scstep>
   <time name="dav">    6.98    6.99</time>
   <time name="total">    7.24    7.25</time>
   <energy>
    <i name="alphaZ">    164.12221242 </i>
    <i name="ewald">   9608.63034451 </i>
    <i name="hartreedc"> -13284.04347069 </i>
    <i name="XCdc">     22.35879796 </i>
    <i name="pawpsdc">   3328.36036734 </i>
    <i name="pawaedc">  -3374.58551447 </i>
    <i name="eentropy">      0.00038232 </i>
    <i name="bandstr">    300.23624469 </i>
    <i name="atom">   3565.76896863 </i>
    <i name="e_fr_energy">    330.84833270 </i>
    <i name="e_wo_entrp">    330.84795038 </i>
    <i name="e_0_energy">    330.84823712 </i>
   </energy>
  </scstep>
  <scstep>
   <time name="dav">    6.96    6.96</time>
   <time name="total">    6.96    6.96</time>
   <energy>
    <i name="e_fr_energy">    -23.70875320 </i>
    <i name="e_wo_entrp">    -23.70759778 </i>
    <i name="e_0_energy">    -23.70846435 </i>
   </energy>
  </scstep>
  <scstep>
   <time name="dav">    9.41    9.42</time>
   <time name="total">    9.41    9.42</time>
   <energy>
    <i name="e_fr_energy">    -50.35997873 </i>
    <i name="e_wo_entrp">    -50.36013942 </i>
    <i name="e_0_energy">    -50.36001890 </i>
   </energy>
  </scstep>
  <scstep>
   <time name="dav">    8.96    8.97</time>
   <time name="total">    8.96    8.97</time>
   <energy>
    <i name="e_fr_energy">    -52.73825742 </i>
    <i name="e_wo_entrp">    -52.73680249 </i>
    <i name="e_0_energy">    -52.73789369 </i>
   </energy>
  </scstep>
  <scstep>
   <time name="dav">    8.93    8.93</time>
   <time name="total">    8.93    8.94</time>
   <energy>
    <i name="e_fr_energy">    -52.92660072 </i>
    <i name="e_wo_entrp">    -52.92407080 </i>
    <i name="e_0_energy">    -52.92596824 </i>
   </energy>
  </scstep>
  <scstep>
   <time name="dav">    9.55    9.56</time>
   <time name="total">    9.55    9.56</time>
   <energy>
    <i name="e_fr_energy">    -52.94345519 </i>
    <i name="e_wo_entrp">    -52.93972935 </i>
    <i name="e_0_energy">    -52.94252373 </i>
   </energy>
  </scstep>
  <scstep>
   <time name="dav">    9.24    9.25</time>
   <time name="total">    9.24    9.25</time>
   <energy>
    <i name="e_fr_energy">    -52.94437400 </i>
    <i name="e_wo_entrp">    -52.94061728 </i>
    <i name="e_0_energy">    -52.94343482 </i>
   </energy>
  </scstep>
  <scstep>
   <time name="dav">    7.85    7.86</time>
   <time name="total">    7.85    7.86</time>
   <energy>
    <i name="e_fr_energy">    -52.94449611 </i>
    <i name="e_wo_entrp">    -52.94074892 </i>
    <i name="e_0_energy">    -52.94355931 </i>
   </energy>
  </scstep>
  <scstep>
   <time name="dav">    6.20    6.20</time>
   <time name="total">    6.20    6.21</time>
   <energy>
    <i name="e_fr_energy">    -52.94450957 </i>
    <i name="e_wo_entrp">    -52.94076219 </i>
    <i name="e_0_energy">    -52.94357272 </i>
   </energy>
  </scstep>
  <scstep>
   <time name="dav">    5.70    5.71</time>
   <time name="total">    6.75    6.75</time>
   <energy>
    <i name="e_fr_energy">    -52.94451269 </i>
    <i name="e_wo_entrp">    -52.94076515 </i>
    <i name="e_0_energy">    -52.94357581 </i>
   </energy>
  </scstep>
  <scstep>
   <time name="diag">    2.04    2.04</time>
   <time name="diis">    7.75    7.76</time>
   <time name="orth">    0.04    0.04</time>
   <time name="total">   11.08   11.09</time>
   <energy>
    <i name="e_fr_energy">   -122.48342532 </i>
    <i name="e_wo_entrp">   -122.48160948 </i>
    <i name="e_0_energy">   -122.48297136 </i>
   </energy>
  </scstep>
  <scstep>
   <time name="diag">    2.04    2.04</time>
   <time name="diis">    5.78    5.78</time>
   <time name="orth">    0.04    0.04</time>
   <time name="total">    9.15    9.16</time>
   <energy>
    <i name="e_fr_energy">    -67.42363239 </i>
    <i name="e_wo_entrp">    -67.42660715 </i>
    <i name="e_0_energy">    -67.42437608 </i>
   </energy>
  </scstep>
  <scstep>
   <time name="diag">    2.03    2.03</time>
   <time name="diis">    5.89    5.90</time>
   <time name="orth">    0.04    0.04</time>
   <time name="total">    9.26    9.27</time>
   <energy>
    <i name="e_fr_energy">    -58.94668919 </i>
    <i name="e_wo_entrp">    -58.93383941 </i>
    <i name="e_0_energy">    -58.94347674 </i>
   </energy>
  </scstep>
  <scstep>
   <time name="diag">    2.05    2.05</time>
   <time name="diis">    6.26    6.26</time>
   <time name="orth">    0.04    0.04</time>
   <time name="total">    9.64    9.65</time>
   <energy>
    <i name="e_fr_energy">    -57.50243214 </i>
    <i name="e_wo_entrp">    -57.50251137 </i>
    <i name="e_0_energy">    -57.50245195 </i>
   </energy>
  </scstep>
  <scstep>
   <time name="diag">    2.03    2.03</time>
   <time name="diis">    5.85    5.86</time>
   <time name="orth">    0.04    0.04</time>
   <time name="total">    9.22    9.22</time>
   <energy>
    <i name="e_fr_energy">    -45.18976663 </i>
    <i name="e_wo_entrp">    -45.18957706 </i>
    <i name="e_0_energy">    -45.18971924 </i>
   </energy>
  </scstep>
  <scstep>
   <time name="diag">    2.04    2.05</time>
   <time name="diis">    6.55    6.56</time>
   <time name="orth">    0.04    0.04</time>
   <time name="total">    9.94    9.94</time>
   <energy>
    <i name="e_fr_energy">    -51.59389459 </i>
    <i name="e_wo_entrp">    -51.59665656 </i>
    <i name="e_0_energy">    -51.59458508 </i>
   </energy>
  </scstep>
  <scstep>
   <time name="diag">    2.04    2.05</time>
   <time name="diis">    6.07    6.08</time>
   <time name="orth">    0.04    0.04</time>
   <time name="total">    9.45    9.46</time>
   <energy>
    <i name="e_fr_energy">    -45.21269312 </i>
    <i name="e_wo_entrp">    -45.21182904 </i>
    <i name="e_0_energy">    -45.21247710 </i>
   </energy>
  </scstep>
  <scstep>
   <time name="diag">    2.03    2.03</time>
   <time name="diis">    7.25    7.26</time>
   <time name="orth">    0.04    0.04</time>
   <time name="total">   10.62   10.63</time>
   <energy>
    <i name="e_fr_energy">    -45.38962765 </i>
    <i name="e_wo_entrp">    -45.39361998 </i>
    <i name="e_0_energy">    -45.39062573 </i>
   </energy>
  </scstep>
  <scstep>
   <time name="diag">    2.04    2.05</time>
   <time name="diis">    6.44    6.45</time>
   <time name="orth">    0.04    0.04</time>
   <time name="total">    9.83    9.84</time>
   <energy>
    <i name="e_fr_energy">    -45.44022870 </i>
    <i name="e_wo_entrp">    -45.44259711 </i>
    <i name="e_0_energy">    -45.44082080 </i>
   </energy>
  </scstep>
  <scstep>
   <time name="diag">    2.04    2.05</time>
   <time name="diis">    6.68    6.68</time>
   <time name="orth">    0.04    0.04</time>
   <time name="total">   10.06   10.07</time>
   <energy>
    <i name="e_fr_energy">    -45.36400490 </i>
    <i name="e_wo_entrp">    -45.36669650 </i>
    <i name="e_0_energy">    -45.36467780 </i>
   </energy>
  </scstep>
  <scstep>
   <time name="diag">    2.02    2.03</time>
   <time name="diis">    6.17    6.17</time>
   <time name="orth">    0.04    0.04</time>
   <time name="total">    9.53    9.54</time>
   <energy>
    <i name="e_fr_energy">    -45.55334764 </i>
    <i name="e_wo_entrp">    -45.55265500 </i>
    <i name="e_0_energy">    -45.55317448 </i>
   </energy>
  </scstep>
  <scstep>
   <time name="diag">    2.04    2.04</time>
   <time name="diis">    5.83    5.84</time>
   <time name="orth">    0.04    0.04</time>
   <time name="total">    9.20    9.21</time>
   <energy>
    <i name="e_fr_energy">    -45.65808723 </i>
    <i name="e_wo_entrp">    -45.65892792 </i>
    <i name="e_0_energy">    -45.65829740 </i>
   </energy>
  </scstep>
  <scstep>
   <time name="diag">    2.03    2.03</time>
   <time name="diis">    6.36    6.37</time>
   <time name="orth">    0.04    0.04</time>
   <time name="total">    9.73    9.74</time>
   <energy>
    <i name="e_fr_energy">    -45.64600641 </i>
    <i name="e_wo_entrp">    -45.64443175 </i>
    <i name="e_0_energy">    -45.64561274 </i>
   </energy>
  </scstep>
  <scstep>
   <time name="diag">    2.04    2.04</time>
   <time name="diis">    6.12    6.13</time>
   <time name="orth">    0.04    0.04</time>
   <time name="total">    9.50    9.51</time>
   <energy>
    <i name="e_fr_energy">    -45.63369592 </i>
    <i name="e_wo_entrp">    -45.63664174 </i>
    <i name="e_0_energy">    -45.63443238 </i>
   </energy>
  </scstep>
  <scstep>
   <time name="diag">    2.02    2.02</time>
   <time name="diis">    6.62    6.63</time>
   <time name="orth">    0.04    0.04</time>
   <time name="total">    9.98    9.99</time>
   <energy>
    <i name="e_fr_energy">    -45.68273029 </i>
    <i name="e_wo_entrp">    -45.68343097 </i>
    <i name="e_0_energy">    -45.68290546 </i>
   </energy>
  </scstep>
  <scstep>
   <time name="diag">    2.04    2.04</time>
   <time name="diis">    6.04    6.04</time>
   <time name="orth">    0.04    0.04</time>
   <time name="total">    9.42    9.43</time>
   <energy>
    <i name="e_fr_energy">    -45.71255724 </i>
    <i name="e_wo_entrp">    -45.71204527 </i>
    <i name="e_0_energy">    -45.71242924 </i>
   </energy>
  </scstep>
  <scstep>
   <time name="diag">    2.03    2.04</time>
   <time name="diis">    6.35    6.36</time>
   <time name="orth">    0.04    0.04</time>
   <time name="total">    9.72    9.73</time>
   <energy>
    <i name="e_fr_energy">    -45.73717199 </i>
    <i name="e_wo_entrp">    -45.73419172 </i>
    <i name="e_0_energy">    -45.73642692 </i>
   </energy>
  </scstep>
  <scstep>
   <time name="diag">    2.04    2.04</time>
   <time name="diis">    5.98    5.99</time>
   <time name="orth">    0.04    0.04</time>
   <time name="total">    9.36    9.37</time>
   <energy>
    <i name="e_fr_energy">    -45.39478327 </i>
    <i name="e_wo_entrp">    -45.39418573 </i>
    <i name="e_0_energy">    -45.39463389 </i>
   </energy>
  </scstep>
  <scstep>
   <time name="diag">    2.03    2.03</time>
   <time name="diis">    6.52    6.53</time>
   <time name="orth">    0.04    0.04</time>
   <time name="total">    9.90    9.90</time>
   <energy>
    <i name="e_fr_energy">    -45.41758610 </i>
    <i name="e_wo_entrp">    -45.41438553 </i>
    <i name="e_0_energy">    -45.41678596 </i>
   </energy>
  </scstep>
  <scstep>
   <time name="diag">    2.02    2.03</time>
   <time name="diis">    6.16    6.17</time>
   <time name="orth">    0.04    0.04</time>
   <time name="total">    9.54    9.54</time>
   <energy>
    <i name="e_fr_energy">    -45.51754876 </i>
    <i name="e_wo_entrp">    -45.51201109 </i>
    <i name="e_0_energy">    -45.51616434 </i>
   </energy>
  </scstep>
  <scstep>
   <time name="diag">    2.03    2.04</time>
   <time name="diis">    6.25    6.25</time>
   <time name="orth">    0.04    0.04</time>
   <time name="total">    9.62    9.63</time>
   <energy>
    <i name="e_fr_energy">    -45.54124463 </i>
    <i name="e_wo_entrp">    -45.53951980 </i>
    <i name="e_0_energy">    -45.54081342 </i>
   </energy>
  </scstep>
  <scstep>
   <time name="diag">    2.02    2.02</time>
   <time name="diis">    6.06    6.07</time>
   <time name="orth">    0.04    0.04</time>
   <time name="total">    9.44    9.44</time>
   <energy>
    <i name="e_fr_energy">    -45.91148394 </i>
    <i name="e_wo_entrp">    -45.90918307 </i>
    <i name="e_0_energy">    -45.91090872 </i>
   </energy>
  </scstep>
  <scstep>
   <time name="diag">    2.04    2.04</time>
   <time name="diis">    6.17    6.17</time>
   <time name="orth">    0.04    0.04</time>
   <time name="total">    9.55    9.56</time>
   <energy>
    <i name="e_fr_energy">    -46.30046575 </i>
    <i name="e_wo_entrp">    -46.30312093 </i>
    <i name="e_0_energy">    -46.30112954 </i>
   </energy>
  </scstep>
  <scstep>
   <time name="diag">    2.03    2.03</time>
   <time name="diis">    6.03    6.04</time>
   <time name="orth">    0.04    0.04</time>
   <time name="total">    9.41    9.42</time>
   <energy>
    <i name="e_fr_energy">    -46.49878146 </i>
    <i name="e_wo_entrp">    -46.50107964 </i>
    <i name="e_0_energy">    -46.49935601 </i>
   </energy>
  </scstep>
  <scstep>
   <time name="diag">    2.04    2.04</time>
   <time name="diis">    6.88    6.89</time>
   <time name="orth">    0.04    0.04</time>
   <time name="total">   10.28   10.29</time>
   <energy>
    <i name="e_fr_energy">    -46.53960043 </i>
    <i name="e_wo_entrp">    -46.54130312 </i>
    <i name="e_0_energy">    -46.54002611 </i>
   </energy>
  </scstep>
  <scstep>
   <time name="diag">    2.02    2.03</time>
   <time name="diis">    6.23    6.23</time>
   <time name="orth">    0.04    0.04</time>
   <time name="total">    9.61    9.62</time>
   <energy>
    <i name="e_fr_energy">    -46.49053964 </i>
    <i name="e_wo_entrp">    -46.49174645 </i>
    <i name="e_0_energy">    -46.49084134 </i>
   </energy>
  </scstep>
  <scstep>
   <time name="diag">    2.04    2.04</time>
   <time name="diis">    6.08    6.09</time>
   <time name="orth">    0.04    0.04</time>
   <time name="total">    9.48    9.48</time>
   <energy>
    <i name="e_fr_energy">    -46.49941437 </i>
    <i name="e_wo_entrp">    -46.49559953 </i>
    <i name="e_0_energy">    -46.49846066 </i>
   </energy>
  </scstep>
  <scstep>
   <time name="diag">    2.02    2.02</time>
   <time name="diis">    6.74    6.74</time>
   <time name="orth">    0.04    0.04</time>
   <time name="total">   10.11   10.12</time>
   <energy>
    <i name="e_fr_energy">    -46.50136594 </i>
    <i name="e_wo_entrp">    -46.49648764 </i>
    <i name="e_0_energy">    -46.50014637 </i>
   </energy>
  </scstep>
  <scstep>
   <time name="diag">    2.03    2.03</time>
   <time name="diis">    6.12    6.13</time>
   <time name="orth">    0.04    0.04</time>
   <time name="total">    9.50    9.51</time>
   <energy>
    <i name="e_fr_energy">    -46.52127958 </i>
    <i name="e_wo_entrp">    -46.51722223 </i>
    <i name="e_0_energy">    -46.52026525 </i>
   </energy>
  </scstep>
  <scstep>
   <time name="diag">    2.02    2.02</time>
   <time name="diis">    6.18    6.18</time>
   <time name="orth">    0.04    0.04</time>
   <time name="total">    9.54    9.54</time>
   <energy>
    <i name="e_fr_energy">    -46.53831845 </i>
    <i name="e_wo_entrp">    -46.53452990 </i>
    <i name="e_0_energy">    -46.53737131 </i>
   </energy>
  </scstep>
  <scstep>
   <time name="diag">    2.03    2.03</time>
   <time name="diis">    6.19    6.19</time>
   <time name="orth">    0.04    0.04</time>
   <time name="total">    9.57    9.58</time>
   <energy>
    <i name="e_fr_energy">    -46.58066197 </i>
    <i name="e_wo_entrp">    -46.57734511 </i>
    <i name="e_0_energy">    -46.57983275 </i>
   </energy>
  </scstep>
  <scstep>
   <time name="diag">    2.03    2.03</time>
   <time name="diis">    6.44    6.44</time>
   <time name="orth">    0.04    0.04</time>
   <time name="total">    9.83    9.84</time>
   <energy>
    <i name="e_fr_energy">    -46.61613526 </i>
    <i name="e_wo_entrp">    -46.61322907 </i>
    <i name="e_0_energy">    -46.61540871 </i>
   </energy>
  </scstep>
  <scstep>
   <time name="diag">    2.04    2.04</time>
   <time name="diis">    6.44    6.45</time>
   <time name="orth">    0.04    0.04</time>
   <time name="total">    9.84    9.85</time>
   <energy>
    <i name="e_fr_energy">    -46.64442437 </i>
    <i name="e_wo_entrp">    -46.64146456 </i>
    <i name="e_0_energy">    -46.64368442 </i>
   </energy>
  </scstep>
  <scstep>
   <time name="diag">    2.03    2.03</time>
   <time name="diis">    6.22    6.23</time>
   <time name="orth">    0.04    0.04</time>
   <time name="total">    9.62    9.62</time>
   <energy>
    <i name="e_fr_energy">    -46.67935327 </i>
    <i name="e_wo_entrp">    -46.67639345 </i>
    <i name="e_0_energy">    -46.67861332 </i>
   </energy>
  </scstep>
  <scstep>
   <time name="diag">    2.04    2.04</time>
   <time name="diis">    6.32    6.33</time>
   <time name="orth">    0.04    0.04</time>
   <time name="total">    9.73    9.74</time>
   <energy>
    <i name="e_fr_energy">    -46.69183968 </i>
    <i name="e_wo_entrp">    -46.68874797 </i>
    <i name="e_0_energy">    -46.69106675 </i>
   </energy>
  </scstep>
  <scstep>
   <time name="diag">    2.04    2.04</time>
   <time name="diis">    6.13    6.14</time>
   <time name="orth">    0.04    0.04</time>
   <time name="total">    9.54    9.55</time>
   <energy>
    <i name="e_fr_energy">    -46.71374061 </i>
    <i name="e_wo_entrp">    -46.71056243 </i>
    <i name="e_0_energy">    -46.71294606 </i>
   </energy>
  </scstep>
  <scstep>
   <time name="diag">    2.02    2.02</time>
   <time name="diis">    5.94    5.94</time>
   <time name="orth">    0.04    0.04</time>
   <time name="total">    9.32    9.33</time>
   <energy>
    <i name="e_fr_energy">    -46.72412155 </i>
    <i name="e_wo_entrp">    -46.72086041 </i>
    <i name="e_0_energy">    -46.72330626 </i>
   </energy>
  </scstep>
  <scstep>
   <time name="diag">    2.04    2.04</time>
   <time name="diis">    6.03    6.04</time>
   <time name="orth">    0.04    0.04</time>
   <time name="total">    9.45    9.45</time>
   <energy>
    <i name="e_fr_energy">    -46.73458711 </i>
    <i name="e_wo_entrp">    -46.73131112 </i>
    <i name="e_0_energy">    -46.73376811 </i>
   </energy>
  </scstep>
  <scstep>
   <time name="diag">    2.04    2.04</time>
   <time name="diis">    5.72    5.72</time>
   <time name="orth">    0.04    0.04</time>
   <time name="total">    9.12    9.13</time>
   <energy>
    <i name="e_fr_energy">    -46.73821837 </i>
    <i name="e_wo_entrp">    -46.73491645 </i>
    <i name="e_0_energy">    -46.73739289 </i>
   </energy>
  </scstep>
  <scstep>
   <time name="diag">    2.03    2.03</time>
   <time name="diis">    5.52    5.53</time>
   <time name="orth">    0.04    0.04</time>
   <time name="total">    8.92    8.93</time>
   <energy>
    <i name="e_fr_energy">    -46.74071443 </i>
    <i name="e_wo_entrp">    -46.73742678 </i>
    <i name="e_0_energy">    -46.73989252 </i>
   </energy>
  </scstep>
  <scstep>
   <time name="diag">    2.04    2.04</time>
   <time name="diis">    5.77    5.78</time>
   <time name="orth">    0.04    0.04</time>
   <time name="total">    9.18    9.19</time>
   <energy>
    <i name="e_fr_energy">    -46.74232982 </i>
    <i name="e_wo_entrp">    -46.73907274 </i>
    <i name="e_0_energy">    -46.74151555 </i>
   </energy>
  </scstep>
  <scstep>
   <time name="diag">    2.03    2.03</time>
   <time name="diis">    5.22    5.22</time>
   <time name="orth">    0.04    0.04</time>
   <time name="total">    8.62    8.63</time>
   <energy>
    <i name="e_fr_energy">    -46.74312150 </i>
    <i name="e_wo_entrp">    -46.73988524 </i>
    <i name="e_0_energy">    -46.74231243 </i>
   </energy>
  </scstep>
  <scstep>
   <time name="diag">    2.03    2.03</time>
   <time name="diis">    5.12    5.13</time>
   <time name="orth">    0.04    0.04</time>
   <time name="total">    8.53    8.54</time>
   <energy>
    <i name="e_fr_energy">    -46.74348632 </i>
    <i name="e_wo_entrp">    -46.74024197 </i>
    <i name="e_0_energy">    -46.74267524 </i>
   </energy>
  </scstep>
  <scstep>
   <time name="diag">    2.03    2.04</time>
   <time name="diis">    4.32    4.33</time>
   <time name="orth">    0.04    0.04</time>
   <time name="total">    7.74    7.75</time>
   <energy>
    <i name="e_fr_energy">    -46.74343566 </i>
    <i name="e_wo_entrp">    -46.74020906 </i>
    <i name="e_0_energy">    -46.74262901 </i>
   </energy>
  </scstep>
  <scstep>
   <time name="diag">    2.04    2.04</time>
   <time name="diis">    3.88    3.88</time>
   <time name="orth">    0.04    0.04</time>
   <time name="total">    6.22    6.23</time>
   <energy>
    <i name="alphaZ">    164.12221242 </i>
    <i name="ewald">   9608.63034451 </i>
    <i name="hartreedc"> -13273.02633576 </i>
    <i name="XCdc">     24.85418415 </i>
    <i name="pawpsdc">   4188.82082815 </i>
    <i name="pawaedc">  -4243.08761966 </i>
    <i name="eentropy">     -0.00322204 </i>
    <i name="bandstr">    -82.82280474 </i>
    <i name="atom">   3565.76896863 </i>
    <i name="e_fr_energy">    -46.74344435 </i>
    <i name="e_wo_entrp">    -46.74022231 </i>
    <i name="e_0_energy">    -46.74263884 </i>
   </energy>
  </scstep>
  <structure>
   <crystal>
    <varray name="basis" >
     <v>       2.82084000       0.00000000       0.00000000 </v>
     <v>       0.00000000       2.82084000       0.00000000 </v>
     <v>       0.00000000       0.00000000      19.05210000 </v>
    </varray>
    <i name="volume">    151.60019471 </i>
    <varray name="rec_basis" >
     <v>       0.35450433       0.00000000       0.00000000 </v>
     <v>       0.00000000       0.35450433       0.00000000 </v>
     <v>       0.00000000       0.00000000       0.05248765 </v>
    </varray>
   </crystal>
   <varray name="positions" >
    <v>       0.00000000       0.00000000       0.00000000 </v>
    <v>       0.50000000       0.50000000       0.07402963 </v>
    <v>       0.00000000       0.00000000       0.14805927 </v>
    <v>       0.50000000       0.50000000       0.22208890 </v>
    <v>       0.00000000       0.00000000       0.29611854 </v>
    <v>       0.50000000       0.50000000       0.37014817 </v>
   </varray>
  </structure>
  <varray name="forces" >
   <v>       0.00000000       0.00000000       0.21091721 </v>
   <v>      -0.00000000       0.00000000      -0.26586564 </v>
   <v>       0.00000000       0.00000000       0.19601652 </v>
   <v>      -0.00000000       0.00000000      -0.19667475 </v>
   <v>      -0.00000000       0.00000000       0.26575432 </v>
   <v>      -0.00000000      -0.00000000      -0.21014766 </v>
  </varray>
  <varray name="stress" >
   <v>     -30.17370520       0.00000000       0.00000000 </v>
   <v>       0.00000000     -30.17370520       0.00000000 </v>
   <v>       0.00000000       0.00000000      -8.10843598 </v>
  </varray>
  <energy>
   <i name="e_fr_energy">    -46.74344435 </i>
   <i name="e_wo_entrp">    -46.74263884 </i>
   <i name="e_0_energy">     -0.00322204 </i>
  </energy>
  <time name="totalsc">  511.10  511.54</time>
 </calculation>
 <calculation>
  <scstep>
   <time name="dav">    6.92    6.93</time>
   <time name="total">    8.22    8.23</time>
   <energy>
    <i name="alphaZ">    164.12221242 </i>
    <i name="ewald">   9620.27448493 </i>
    <i name="hartreedc"> -13284.55071518 </i>
    <i name="XCdc">     24.86739084 </i>
    <i name="pawpsdc">   4188.75693587 </i>
    <i name="pawaedc">  -4243.02186831 </i>
    <i name="eentropy">     -0.00332574 </i>
    <i name="bandstr">    -82.95444800 </i>
    <i name="atom">   3565.76896863 </i>
    <i name="e_fr_energy">    -46.74036454 </i>
    <i name="e_wo_entrp">    -46.73703880 </i>
    <i name="e_0_energy">    -46.73953310 </i>
   </energy>
  </scstep>
  <scstep>
   <time name="diag">    2.04    2.04</time>
   <time name="diis">    6.00    6.01</time>
   <time name="orth">    0.04    0.04</time>
   <time name="total">    9.38    9.38</time>
   <energy>
    <i name="e_fr_energy">    -46.75287484 </i>
    <i name="e_wo_entrp">    -46.74931825 </i>
    <i name="e_0_energy">    -46.75198570 </i>
   </energy>
  </scstep>
  <scstep>
   <time name="diag">    2.04    2.04</time>
   <time name="diis">    5.79    5.80</time>
   <time name="orth">    0.04    0.04</time>
   <time name="total">    9.17    9.18</time>
   <energy>
    <i name="e_fr_energy">    -46.75673451 </i>
    <i name="e_wo_entrp">    -46.75399689 </i>
    <i name="e_0_energy">    -46.75605011 </i>
   </energy>
  </scstep>
  <scstep>
   <time name="diag">    2.03    2.03</time>
   <time name="diis">    5.90    5.90</time>
   <time name="orth">    0.04    0.04</time>
   <time name="total">    9.26    9.27</time>
   <energy>
    <i name="e_fr_energy">    -46.75030690 </i>
    <i name="e_wo_entrp">    -46.74709729 </i>
    <i name="e_0_energy">    -46.74950450 </i>
   </energy>
  </scstep>
  <scstep>
   <time name="diag">    2.04    2.05</time>
   <time name="diis">    5.91    5.92</time>
   <time name="orth">    0.04    0.04</time>
   <time name="total">    9.29    9.30</time>
   <energy>
    <i name="e_fr_energy">    -46.74893750 </i>
    <i name="e_wo_entrp">    -46.74564765 </i>
    <i name="e_0_energy">    -46.74811504 </i>
   </energy>
  </scstep>
  <scstep>
   <time name="diag">    2.04    2.04</time>
   <time name="diis">    6.57    6.58</time>
   <time name="orth">    0.04    0.04</time>
   <time name="total">    9.94    9.95</time>
   <energy>
    <i name="e_fr_energy">    -46.74919995 </i>
    <i name="e_wo_entrp">    -46.74587600 </i>
    <i name="e_0_energy">    -46.74836896 </i>
   </energy>
  </scstep>
  <scstep>
   <time name="diag">    2.04    2.03</time>
   <time name="diis">    5.95    5.95</time>
   <time name="orth">    0.04    0.04</time>
   <time name="total">    9.32    9.33</time>
   <energy>
    <i name="e_fr_energy">    -46.74892082 </i>
    <i name="e_wo_entrp">    -46.74554130 </i>
    <i name="e_0_energy">    -46.74807594 </i>
   </energy>
  </scstep>
  <scstep>
   <time name="diag">    2.04    2.05</time>
   <time name="diis">    6.16    6.17</time>
   <time name="orth">    0.04    0.04</time>
   <time name="total">    9.54    9.55</time>
   <energy>
    <i name="e_fr_energy">    -46.74887566 </i>
    <i name="e_wo_entrp">    -46.74554423 </i>
    <i name="e_0_energy">    -46.74804280 </i>
   </energy>
  </scstep>
  <scstep>
   <time name="diag">    2.04    2.04</time>
   <time name="diis">    5.84    5.85</time>
   <time name="orth">    0.04    0.04</time>
   <time name="total">    9.21    9.22</time>
   <energy>
    <i name="e_fr_energy">    -46.74897245 </i>
    <i name="e_wo_entrp">    -46.74563650 </i>
    <i name="e_0_energy">    -46.74813846 </i>
   </energy>
  </scstep>
  <scstep>
   <time name="diag">    2.03    2.03</time>
   <time name="diis">    5.31    5.32</time>
   <time name="orth">    0.04    0.04</time>
   <time name="total">    8.69    8.69</time>
   <energy>
    <i name="e_fr_energy">    -46.74899300 </i>
    <i name="e_wo_entrp">    -46.74565648 </i>
    <i name="e_0_energy">    -46.74815887 </i>
   </energy>
  </scstep>
  <scstep>
   <time name="diag">    2.04    2.05</time>
   <time name="diis">    4.53    4.53</time>
   <time name="orth">    0.04    0.04</time>
   <time name="total">    7.92    7.92</time>
   <energy>
    <i name="e_fr_energy">    -46.74905215 </i>
    <i name="e_wo_entrp">    -46.74569064 </i>
    <i name="e_0_energy">    -46.74821177 </i>
   </energy>
  </scstep>
  <scstep>
   <time name="diag">    2.03    2.03</time>
   <time name="diis">    3.85    3.85</time>
   <time name="orth">    0.04    0.04</time>
   <time name="total">    7.22    7.22</time>
   <energy>
    <i name="e_fr_energy">    -46.74911060 </i>
    <i name="e_wo_entrp">    -46.74574706 </i>
    <i name="e_0_energy">    -46.74826972 </i>
   </energy>
  </scstep>
  <scstep>
   <time name="diag">    2.03    2.03</time>
   <time name="diis">    4.06    4.06</time>
   <time name="orth">    0.04    0.04</time>
   <time name="total">    7.43    7.43</time>
   <energy>
    <i name="e_fr_energy">    -46.74924515 </i>
    <i name="e_wo_entrp">    -46.74588296 </i>
    <i name="e_0_energy">    -46.74840460 </i>
   </energy>
  </scstep>
  <scstep>
   <time name="diag">    2.04    2.04</time>
   <time name="diis">    4.36    4.37</time>
   <time name="orth">    0.04    0.04</time>
   <time name="total">    7.74    7.75</time>
   <energy>
    <i name="e_fr_energy">    -46.74939837 </i>
    <i name="e_wo_entrp">    -46.74602894 </i>
    <i name="e_0_energy">    -46.74855601 </i>
   </energy>
  </scstep>
  <scstep>
   <time name="diag">    2.04    2.05</time>
   <time name="diis">    4.00    4.00</time>
   <time name="orth">    0.04    0.04</time>
   <time name="total">    7.38    7.38</time>
   <energy>
    <i name="e_fr_energy">    -46.74942099 </i>
    <i name="e_wo_entrp">    -46.74605389 </i>
    <i name="e_0_energy">    -46.74857921 </i>
   </energy>
  </scstep>
  <scstep>
   <time name="diag">    2.03    2.04</time>
   <time name="diis">    3.80    3.80</time>
   <time name="orth">    0.04    0.04</time>
   <time name="total">    7.17    7.18</time>
   <energy>
    <i name="e_fr_energy">    -46.74949087 </i>
    <i name="e_wo_entrp">    -46.74612072 </i>
    <i name="e_0_energy">    -46.74864833 </i>
   </energy>
  </scstep>
  <scstep>
   <time name="diag">    2.04    2.04</time>
   <time name="diis">    3.79    3.80</time>
   <time name="orth">    0.04    0.04</time>
   <time name="total">    7.18    7.18</time>
   <energy>
    <i name="e_fr_energy">    -46.74953551 </i>
    <i name="e_wo_entrp">    -46.74616498 </i>
    <i name="e_0_energy">    -46.74869287 </i>
   </energy>
  </scstep>
  <scstep>
   <time name="diag">    2.04    2.05</time>
   <time name="diis">    3.74    3.75</time>
   <time name="orth">    0.04    0.04</time>
   <time name="total">    7.13    7.14</time>
   <energy>
    <i name="e_fr_energy">    -46.74956587 </i>
    <i name="e_wo_entrp">    -46.74619582 </i>
    <i name="e_0_energy">    -46.74872336 </i>
   </energy>
  </scstep>
  <scstep>
   <time name="diag">    2.04    2.04</time>
   <time name="diis">    3.61    3.61</time>
   <time name="orth">    0.04    0.04</time>
   <time name="total">    6.99    7.00</time>
   <energy>
    <i name="e_fr_energy">    -46.74957824 </i>
    <i name="e_wo_entrp">    -46.74620833 </i>
    <i name="e_0_energy">    -46.74873577 </i>
   </energy>
  </scstep>
  <scstep>
   <time name="diag">    2.03    2.03</time>
   <time name="diis">    3.66    3.66</time>
   <time name="orth">    0.04    0.04</time>
   <time name="total">    7.03    7.04</time>
   <energy>
    <i name="e_fr_energy">    -46.74959129 </i>
    <i name="e_wo_entrp">    -46.74621966 </i>
    <i name="e_0_energy">    -46.74874838 </i>
   </energy>
  </scstep>
  <scstep>
   <time name="diag">    2.04    2.04</time>
   <time name="diis">    3.40    3.40</time>
   <time name="orth">    0.04    0.04</time>
   <time name="total">    5.73    5.73</time>
   <energy>
    <i name="alphaZ">    164.12221242 </i>
    <i name="ewald">   9620.27448493 </i>
    <i name="hartreedc"> -13284.42179717 </i>
    <i name="XCdc">     24.83268998 </i>
    <i name="pawpsdc">   4191.62728914 </i>
    <i name="pawaedc">  -4245.86200742 </i>
    <i name="eentropy">     -0.00337198 </i>
    <i name="bandstr">    -83.08805982 </i>
    <i name="atom">   3565.76896863 </i>
    <i name="e_fr_energy">    -46.74959127 </i>
    <i name="e_wo_entrp">    -46.74621929 </i>
    <i name="e_0_energy">    -46.74874828 </i>
   </energy>
  </scstep>
  <structure>
   <crystal>
    <varray name="basis" >
     <v>       2.82084000       0.00000000       0.00000000 </v>
     <v>       0.00000000       2.82084000       0.00000000 </v>
     <v>       0.00000000       0.00000000      19.05210000 </v>
    </varray>
    <i name="volume">    151.60019471 </i>
    <varray name="rec_basis" >
     <v>       0.35450433       0.00000000       0.00000000 </v>
     <v>       0.00000000       0.35450433       0.00000000 </v>
     <v>       0.00000000       0.00000000       0.05248765 </v>
    </varray>
   </crystal>
   <varray name="positions" >
    <v>       0.00000000       0.00000000       0.00000000 </v>
    <v>       0.50000000       0.50000000       0.07402963 </v>
    <v>       0.00000000       0.00000000       0.14855561 </v>
    <v>       0.50000000       0.50000000       0.22159089 </v>
    <v>      -0.00000000       0.00000000       0.29679147 </v>
    <v>       0.50000000       0.50000000       0.36961605 </v>
   </varray>
  </structure>
  <varray name="forces" >
   <v>      -0.00000000      -0.00000000       0.21332695 </v>
   <v>      -0.00000000      -0.00000000      -0.25351467 </v>
   <v>       0.00000000      -0.00000000       0.08434738 </v>
   <v>      -0.00000000       0.00000000      -0.02802955 </v>
   <v>      -0.00000000      -0.00000000       0.07694672 </v>
   <v>      -0.00000000      -0.00000000      -0.09307683 </v>
  </varray>
  <varray name="stress" >
   <v>     -30.38079556       0.00000000       0.00000000 </v>
   <v>       0.00000000     -30.38079556       0.00000000 </v>
   <v>       0.00000000       0.00000000      -6.50087427 </v>
  </varray>
  <energy>
   <i name="e_fr_energy">    -46.74959127 </i>
   <i name="e_wo_entrp">    -46.74874828 </i>
   <i name="e_0_energy">     -0.00337198 </i>
  </energy>
  <time name="totalsc">  175.02  175.17</time>
 </calculation>
 <calculation>
  <scstep>
   <time name="dav">    7.12    7.12</time>
   <time name="total">    8.41    8.42</time>
   <energy>
    <i name="alphaZ">    164.12221242 </i>
    <i name="ewald">   9625.82285952 </i>
    <i name="hartreedc"> -13289.90086749 </i>
    <i name="XCdc">     24.84105908 </i>
    <i name="pawpsdc">   4191.62882655 </i>
    <i name="pawaedc">  -4245.86357908 </i>
    <i name="eentropy">     -0.00308395 </i>
    <i name="bandstr">    -83.16460832 </i>
    <i name="atom">   3565.76896863 </i>
    <i name="e_fr_energy">    -46.74821263 </i>
    <i name="e_wo_entrp">    -46.74512868 </i>
    <i name="e_0_energy">    -46.74744165 </i>
   </energy>
  </scstep>
  <scstep>
   <time name="diag">    2.03    2.03</time>
   <time name="diis">    6.00    6.00</time>
   <time name="orth">    0.04    0.04</time>
   <time name="total">    9.36    9.37</time>
   <energy>
    <i name="e_fr_energy">    -46.75119780 </i>
    <i name="e_wo_entrp">    -46.74792775 </i>
    <i name="e_0_energy">    -46.75038029 </i>
   </energy>
  </scstep>
  <scstep>
   <time name="diag">    2.04    2.04</time>
   <time name="diis">    5.85    5.85</time>
   <time name="orth">    0.04    0.04</time>
   <time name="total">    9.22    9.23</time>
   <energy>
    <i name="e_fr_energy">    -46.75180236 </i>
    <i name="e_wo_entrp">    -46.74925107 </i>
    <i name="e_0_energy">    -46.75116454 </i>
   </energy>
  </scstep>
  <scstep>
   <time name="diag">    2.04    2.05</time>
   <time name="diis">    5.82    5.83</time>
   <time name="orth">    0.04    0.04</time>
   <time name="total">    9.20    9.21</time>
   <energy>
    <i name="e_fr_energy">    -46.75033700 </i>
    <i name="e_wo_entrp">    -46.74728554 </i>
    <i name="e_0_energy">    -46.74957414 </i>
   </energy>
  </scstep>
  <scstep>
   <time name="diag">    2.03    2.03</time>
   <time name="diis">    5.96    5.97</time>
   <time name="orth">    0.04    0.04</time>
   <time name="total">    9.32    9.33</time>
   <energy>
    <i name="e_fr_energy">    -46.75020543 </i>
    <i name="e_wo_entrp">    -46.74716728 </i>
    <i name="e_0_energy">    -46.74944589 </i>
   </energy>
  </scstep>
  <scstep>
   <time name="diag">    2.04    2.04</time>
   <time name="diis">    6.53    6.54</time>
   <time name="orth">    0.04    0.04</time>
   <time name="total">    9.91    9.92</time>
   <energy>
    <i name="e_fr_energy">    -46.75021111 </i>
    <i name="e_wo_entrp">    -46.74713003 </i>
    <i name="e_0_energy">    -46.74944084 </i>
   </energy>
  </scstep>
  <scstep>
   <time name="diag">    2.05    2.05</time>
   <time name="diis">    5.49    5.49</time>
   <time name="orth">    0.04    0.04</time>
   <time name="total">    8.87    8.88</time>
   <energy>
    <i name="e_fr_energy">    -46.75013164 </i>
    <i name="e_wo_entrp">    -46.74703253 </i>
    <i name="e_0_energy">    -46.74935687 </i>
   </energy>
  </scstep>
  <scstep>
   <time name="diag">    2.03    2.03</time>
   <time name="diis">    5.46    5.46</time>
   <time name="orth">    0.04    0.04</time>
   <time name="total">    8.82    8.83</time>
   <energy>
    <i name="e_fr_energy">    -46.75011353 </i>
    <i name="e_wo_entrp">    -46.74704580 </i>
    <i name="e_0_energy">    -46.74934660 </i>
   </energy>
  </scstep>
  <scstep>
   <time name="diag">    2.03    2.03</time>
   <time name="diis">    4.39    4.40</time>
   <time name="orth">    0.04    0.04</time>
   <time name="total">    6.72    6.72</time>
   <energy>
    <i name="alphaZ">    164.12221242 </i>
    <i name="ewald">   9625.82285952 </i>
    <i name="hartreedc"> -13289.92610544 </i>
    <i name="XCdc">     24.82665175 </i>
    <i name="pawpsdc">   4193.07361052 </i>
    <i name="pawaedc">  -4247.29866561 </i>
    <i name="eentropy">     -0.00307223 </i>
    <i name="bandstr">    -83.13657974 </i>
    <i name="atom">   3565.76896863 </i>
    <i name="e_fr_energy">    -46.75012018 </i>
    <i name="e_wo_entrp">    -46.74704795 </i>
    <i name="e_0_energy">    -46.74935212 </i>
   </energy>
  </scstep>
  <structure>
   <crystal>
    <varray name="basis" >
     <v>       2.82084000       0.00000000       0.00000000 </v>
     <v>       0.00000000       2.82084000       0.00000000 </v>
     <v>       0.00000000       0.00000000      19.05210000 </v>
    </varray>
    <i name="volume">    151.60019471 </i>
    <varray name="rec_basis" >
     <v>       0.35450433       0.00000000       0.00000000 </v>
     <v>       0.00000000       0.35450433       0.00000000 </v>
     <v>       0.00000000       0.00000000       0.05248765 </v>
    </varray>
   </crystal>
   <varray name="positions" >
    <v>       0.00000000       0.00000000       0.00000000 </v>
    <v>       0.50000000       0.50000000       0.07402963 </v>
    <v>       0.00000000       0.00000000       0.14879284 </v>
    <v>       0.50000000       0.50000000       0.22135287 </v>
    <v>      -0.00000000       0.00000000       0.29711309 </v>
    <v>       0.50000000       0.50000000       0.36936172 </v>
   </varray>
  </structure>
  <varray name="forces" >
   <v>       0.00000000       0.00000000       0.21317389 </v>
   <v>       0.00000000       0.00000000      -0.24407812 </v>
   <v>       0.00000000       0.00000000       0.02801722 </v>
   <v>       0.00000000       0.00000000       0.05132779 </v>
   <v>       0.00000000       0.00000000      -0.01198640 </v>
   <v>       0.00000000       0.00000000      -0.03645438 </v>
  </varray>
  <varray name="stress" >
   <v>     -30.38087405       0.00000000       0.00000000 </v>
   <v>       0.00000000     -30.38087405       0.00000000 </v>
   <v>       0.00000000       0.00000000      -5.55642683 </v>
  </varray>
  <energy>
   <i name="e_fr_energy">    -46.75012018 </i>
   <i name="e_wo_entrp">    -46.74935212 </i>
   <i name="e_0_energy">     -0.00307223 </i>
  </energy>
  <time name="totalsc">   83.90   83.98</time>
 </calculation>
 <calculation>
  <scstep>
   <time name="dav">    6.97    6.98</time>
   <time name="total">    8.26    8.27</time>
   <energy>
    <i name="alphaZ">    164.12221242 </i>
    <i name="ewald">   9630.17608782 </i>
    <i name="hartreedc"> -13294.25417685 </i>
    <i name="XCdc">     24.83076962 </i>
    <i name="pawpsdc">   4193.09070747 </i>
    <i name="pawaedc">  -4247.31532381 </i>
    <i name="eentropy">     -0.00299718 </i>
    <i name="bandstr">    -83.16630908 </i>
    <i name="atom">   3565.76896863 </i>
    <i name="e_fr_energy">    -46.75006095 </i>
    <i name="e_wo_entrp">    -46.74706376 </i>
    <i name="e_0_energy">    -46.74931165 </i>
   </energy>
  </scstep>
  <scstep>
   <time name="diag">    2.03    2.03</time>
   <time name="diis">    6.11    6.12</time>
   <time name="orth">    0.04    0.04</time>
   <time name="total">    9.47    9.48</time>
   <energy>
    <i name="e_fr_energy">    -46.75064892 </i>
    <i name="e_wo_entrp">    -46.74768735 </i>
    <i name="e_0_energy">    -46.74990853 </i>
   </energy>
  </scstep>
  <scstep>
   <time name="diag">    2.03    2.03</time>
   <time name="diis">    5.84    5.85</time>
   <time name="orth">    0.04    0.04</time>
   <time name="total">    9.20    9.21</time>
   <energy>
    <i name="e_fr_energy">    -46.75046640 </i>
    <i name="e_wo_entrp">    -46.74754086 </i>
    <i name="e_0_energy">    -46.74973501 </i>
   </energy>
  </scstep>
  <scstep>
   <time name="diag">    2.02    2.02</time>
   <time name="diis">    6.07    6.07</time>
   <time name="orth">    0.04    0.04</time>
   <time name="total">    9.42    9.43</time>
   <energy>
    <i name="e_fr_energy">    -46.75032093 </i>
    <i name="e_wo_entrp">    -46.74731804 </i>
    <i name="e_0_energy">    -46.74957021 </i>
   </energy>
  </scstep>
  <scstep>
   <time name="diag">    2.04    2.04</time>
   <time name="diis">    5.72    5.72</time>
   <time name="orth">    0.04    0.04</time>
   <time name="total">    9.08    9.09</time>
   <energy>
    <i name="e_fr_energy">    -46.75025629 </i>
    <i name="e_wo_entrp">    -46.74729884 </i>
    <i name="e_0_energy">    -46.74951693 </i>
   </energy>
  </scstep>
  <scstep>
   <time name="diag">    2.04    2.03</time>
   <time name="diis">    5.33    5.34</time>
   <time name="orth">    0.04    0.04</time>
   <time name="total">    8.69    8.70</time>
   <energy>
    <i name="e_fr_energy">    -46.75022927 </i>
    <i name="e_wo_entrp">    -46.74725319 </i>
    <i name="e_0_energy">    -46.74948525 </i>
   </energy>
  </scstep>
  <scstep>
   <time name="diag">    2.02    2.02</time>
   <time name="diis">    3.79    3.79</time>
   <time name="orth">    0.04    0.04</time>
   <time name="total">    6.10    6.11</time>
   <energy>
    <i name="alphaZ">    164.12221242 </i>
    <i name="ewald">   9630.17608782 </i>
    <i name="hartreedc"> -13294.26673186 </i>
    <i name="XCdc">     24.82931987 </i>
    <i name="pawpsdc">   4193.57277593 </i>
    <i name="pawaedc">  -4247.79994683 </i>
    <i name="eentropy">     -0.00296950 </i>
    <i name="bandstr">    -83.14994940 </i>
    <i name="atom">   3565.76896863 </i>
    <i name="e_fr_energy">    -46.75023292 </i>
    <i name="e_wo_entrp">    -46.74726342 </i>
    <i name="e_0_energy">    -46.74949055 </i>
   </energy>
  </scstep>
  <structure>
   <crystal>
    <varray name="basis" >
     <v>       2.82084000       0.00000000       0.00000000 </v>
     <v>       0.00000000       2.82084000       0.00000000 </v>
     <v>       0.00000000       0.00000000      19.05210000 </v>
    </varray>
    <i name="volume">    151.60019471 </i>
    <varray name="rec_basis" >
     <v>       0.35450433       0.00000000       0.00000000 </v>
     <v>       0.00000000       0.35450433       0.00000000 </v>
     <v>       0.00000000       0.00000000       0.05248765 </v>
    </varray>
   </crystal>
   <varray name="positions" >
    <v>       0.00000000       0.00000000       0.00000000 </v>
    <v>       0.50000000       0.50000000       0.07402963 </v>
    <v>       0.00000000       0.00000000       0.14888479 </v>
    <v>       0.50000000       0.50000000       0.22148099 </v>
    <v>      -0.00000000       0.00000000       0.29709913 </v>
    <v>       0.50000000       0.50000000       0.36924534 </v>
   </varray>
  </structure>
  <varray name="forces" >
   <v>      -0.00000000       0.00000000       0.21408931 </v>
   <v>      -0.00000000       0.00000000      -0.23547612 </v>
   <v>       0.00000000       0.00000000       0.02153672 </v>
   <v>      -0.00000000       0.00000000       0.03158489 </v>
   <v>      -0.00000000       0.00000000      -0.01168683 </v>
   <v>      -0.00000000      -0.00000000      -0.02004798 </v>
  </varray>
  <varray name="stress" >
   <v>     -30.24459474       0.00000000       0.00000000 </v>
   <v>       0.00000000     -30.24459474       0.00000000 </v>
   <v>       0.00000000       0.00000000      -5.33443461 </v>
  </varray>
  <energy>
   <i name="e_fr_energy">    -46.75023292 </i>
   <i name="e_wo_entrp">    -46.74949055 </i>
   <i name="e_0_energy">     -0.00296950 </i>
  </energy>
  <time name="totalsc">   64.30   64.36</time>
 </calculation>
 <calculation>
  <scstep>
   <time name="dav">    6.92    6.92</time>
   <time name="total">    8.20    8.21</time>
   <energy>
    <i name="alphaZ">    164.12221242 </i>
    <i name="ewald">   9637.54911522 </i>
    <i name="hartreedc"> -13301.57967760 </i>
    <i name="XCdc">     24.83632702 </i>
    <i name="pawpsdc">   4193.65532659 </i>
    <i name="pawaedc">  -4247.88218232 </i>
    <i name="eentropy">     -0.00286657 </i>
    <i name="bandstr">    -83.21678336 </i>
    <i name="atom">   3565.76896863 </i>
    <i name="e_fr_energy">    -46.74955996 </i>
    <i name="e_wo_entrp">    -46.74669339 </i>
    <i name="e_0_energy">    -46.74884332 </i>
   </energy>
  </scstep>
  <scstep>
   <time name="diag">    2.03    2.03</time>
   <time name="diis">    6.02    6.03</time>
   <time name="orth">    0.04    0.04</time>
   <time name="total">    9.38    9.39</time>
   <energy>
    <i name="e_fr_energy">    -46.75140245 </i>
    <i name="e_wo_entrp">    -46.74867545 </i>
    <i name="e_0_energy">    -46.75072070 </i>
   </energy>
  </scstep>
  <scstep>
   <time name="diag">    2.03    2.04</time>
   <time name="diis">    5.81    5.81</time>
   <time name="orth">    0.04    0.04</time>
   <time name="total">    9.17    9.18</time>
   <energy>
    <i name="e_fr_energy">    -46.75034006 </i>
    <i name="e_wo_entrp">    -46.74752035 </i>
    <i name="e_0_energy">    -46.74963513 </i>
   </energy>
  </scstep>
  <scstep>
   <time name="diag">    2.02    2.03</time>
   <time name="diis">    6.22    6.23</time>
   <time name="orth">    0.04    0.04</time>
   <time name="total">    9.58    9.58</time>
   <energy>
    <i name="e_fr_energy">    -46.75022127 </i>
    <i name="e_wo_entrp">    -46.74738860 </i>
    <i name="e_0_energy">    -46.74951310 </i>
   </energy>
  </scstep>
  <scstep>
   <time name="diag">    2.03    2.03</time>
   <time name="diis">    5.98    5.98</time>
   <time name="orth">    0.04    0.04</time>
   <time name="total">    9.34    9.34</time>
   <energy>
    <i name="e_fr_energy">    -46.75023438 </i>
    <i name="e_wo_entrp">    -46.74747318 </i>
    <i name="e_0_energy">    -46.74954408 </i>
   </energy>
  </scstep>
  <scstep>
   <time name="diag">    2.04    2.04</time>
   <time name="diis">    6.05    6.05</time>
   <time name="orth">    0.04    0.04</time>
   <time name="total">    9.41    9.42</time>
   <energy>
    <i name="e_fr_energy">    -46.75004888 </i>
    <i name="e_wo_entrp">    -46.74720331 </i>
    <i name="e_0_energy">    -46.74933749 </i>
   </energy>
  </scstep>
  <scstep>
   <time name="diag">    2.03    2.03</time>
   <time name="diis">    5.43    5.44</time>
   <time name="orth">    0.04    0.04</time>
   <time name="total">    8.79    8.80</time>
   <energy>
    <i name="e_fr_energy">    -46.75005894 </i>
    <i name="e_wo_entrp">    -46.74727642 </i>
    <i name="e_0_energy">    -46.74936331 </i>
   </energy>
  </scstep>
  <scstep>
   <time name="diag">    2.03    2.03</time>
   <time name="diis">    4.42    4.43</time>
   <time name="orth">    0.04    0.04</time>
   <time name="total">    7.78    7.79</time>
   <energy>
    <i name="e_fr_energy">    -46.75007421 </i>
    <i name="e_wo_entrp">    -46.74725413 </i>
    <i name="e_0_energy">    -46.74936919 </i>
   </energy>
  </scstep>
  <scstep>
   <time name="diag">    2.02    2.02</time>
   <time name="diis">    4.67    4.68</time>
   <time name="orth">    0.04    0.04</time>
   <time name="total">    8.02    8.03</time>
   <energy>
    <i name="e_fr_energy">    -46.75015822 </i>
    <i name="e_wo_entrp">    -46.74732925 </i>
    <i name="e_0_energy">    -46.74945098 </i>
   </energy>
  </scstep>
  <scstep>
   <time name="diag">    2.04    2.04</time>
   <time name="diis">    4.02    4.02</time>
   <time name="orth">    0.04    0.04</time>
   <time name="total">    7.39    7.39</time>
   <energy>
    <i name="e_fr_energy">    -46.75020074 </i>
    <i name="e_wo_entrp">    -46.74738743 </i>
    <i name="e_0_energy">    -46.74949742 </i>
   </energy>
  </scstep>
  <scstep>
   <time name="diag">    2.04    2.04</time>
   <time name="diis">    3.83    3.83</time>
   <time name="orth">    0.04    0.04</time>
   <time name="total">    7.20    7.21</time>
   <energy>
    <i name="e_fr_energy">    -46.75026810 </i>
    <i name="e_wo_entrp">    -46.74747042 </i>
    <i name="e_0_energy">    -46.74956868 </i>
   </energy>
  </scstep>
  <scstep>
   <time name="diag">    2.04    2.04</time>
   <time name="diis">    3.61    3.61</time>
   <time name="orth">    0.04    0.04</time>
   <time name="total">    6.98    6.98</time>
   <energy>
    <i name="e_fr_energy">    -46.75029733 </i>
    <i name="e_wo_entrp">    -46.74749375 </i>
    <i name="e_0_energy">    -46.74959643 </i>
   </energy>
  </scstep>
  <scstep>
   <time name="diag">    2.04    2.04</time>
   <time name="diis">    3.59    3.60</time>
   <time name="orth">    0.04    0.04</time>
   <time name="total">    6.97    6.97</time>
   <energy>
    <i name="e_fr_energy">    -46.75032170 </i>
    <i name="e_wo_entrp">    -46.74751785 </i>
    <i name="e_0_energy">    -46.74962073 </i>
   </energy>
  </scstep>
  <scstep>
   <time name="diag">    2.04    2.04</time>
   <time name="diis">    3.54    3.54</time>
   <time name="orth">    0.04    0.04</time>
   <time name="total">    6.90    6.91</time>
   <energy>
    <i name="e_fr_energy">    -46.75035271 </i>
    <i name="e_wo_entrp">    -46.74754729 </i>
    <i name="e_0_energy">    -46.74965136 </i>
   </energy>
  </scstep>
  <scstep>
   <time name="diag">    2.02    2.02</time>
   <time name="diis">    3.30    3.31</time>
   <time name="orth">    0.04    0.04</time>
   <time name="total">    6.66    6.67</time>
   <energy>
    <i name="e_fr_energy">    -46.75042153 </i>
    <i name="e_wo_entrp">    -46.74761624 </i>
    <i name="e_0_energy">    -46.74972021 </i>
   </energy>
  </scstep>
  <scstep>
   <time name="diag">    2.04    2.04</time>
   <time name="diis">    3.44    3.45</time>
   <time name="orth">    0.04    0.04</time>
   <time name="total">    6.82    6.83</time>
   <energy>
    <i name="e_fr_energy">    -46.75049864 </i>
    <i name="e_wo_entrp">    -46.74769473 </i>
    <i name="e_0_energy">    -46.74979766 </i>
   </energy>
  </scstep>
  <scstep>
   <time name="diag">    2.04    2.04</time>
   <time name="diis">    3.40    3.40</time>
   <time name="orth">    0.04    0.04</time>
   <time name="total">    6.78    6.79</time>
   <energy>
    <i name="e_fr_energy">    -46.75051556 </i>
    <i name="e_wo_entrp">    -46.74771225 </i>
    <i name="e_0_energy">    -46.74981473 </i>
   </energy>
  </scstep>
  <scstep>
   <time name="diag">    2.02    2.03</time>
   <time name="diis">    3.16    3.17</time>
   <time name="orth">    0.04    0.04</time>
   <time name="total">    6.53    6.53</time>
   <energy>
    <i name="e_fr_energy">    -46.75052746 </i>
    <i name="e_wo_entrp">    -46.74772478 </i>
    <i name="e_0_energy">    -46.74982679 </i>
   </energy>
  </scstep>
  <scstep>
   <time name="diag">    2.03    2.03</time>
   <time name="diis">    3.43    3.43</time>
   <time name="orth">    0.04    0.04</time>
   <time name="total">    6.80    6.80</time>
   <energy>
    <i name="e_fr_energy">    -46.75058495 </i>
    <i name="e_wo_entrp">    -46.74778447 </i>
    <i name="e_0_energy">    -46.74988483 </i>
   </energy>
  </scstep>
  <scstep>
   <time name="diag">    2.03    2.03</time>
   <time name="diis">    3.37    3.37</time>
   <time name="orth">    0.04    0.04</time>
   <time name="total">    6.74    6.74</time>
   <energy>
    <i name="e_fr_energy">    -46.75061096 </i>
    <i name="e_wo_entrp">    -46.74781192 </i>
    <i name="e_0_energy">    -46.74991120 </i>
   </energy>
  </scstep>
  <scstep>
   <time name="diag">    2.02    2.02</time>
   <time name="diis">    3.29    3.30</time>
   <time name="orth">    0.04    0.04</time>
   <time name="total">    5.60    5.61</time>
   <energy>
    <i name="alphaZ">    164.12221242 </i>
    <i name="ewald">   9637.54911522 </i>
    <i name="hartreedc"> -13301.52594071 </i>
    <i name="XCdc">     24.83338675 </i>
    <i name="pawpsdc">   4195.10390116 </i>
    <i name="pawaedc">  -4249.33681094 </i>
    <i name="eentropy">     -0.00279763 </i>
    <i name="bandstr">    -83.26265090 </i>
    <i name="atom">   3565.76896863 </i>
    <i name="e_fr_energy">    -46.75061599 </i>
    <i name="e_wo_entrp">    -46.74781836 </i>
    <i name="e_0_energy">    -46.74991658 </i>
   </energy>
  </scstep>
  <structure>
   <crystal>
    <varray name="basis" >
     <v>       2.82084000       0.00000000       0.00000000 </v>
     <v>       0.00000000       2.82084000       0.00000000 </v>
     <v>       0.00000000       0.00000000      19.05210000 </v>
    </varray>
    <i name="volume">    151.60019471 </i>
    <varray name="rec_basis" >
     <v>       0.35450433       0.00000000       0.00000000 </v>
     <v>       0.00000000       0.35450433       0.00000000 </v>
     <v>       0.00000000       0.00000000       0.05248765 </v>
    </varray>
   </crystal>
   <varray name="positions" >
    <v>       0.00000000       0.00000000       0.00000000 </v>
    <v>       0.50000000       0.50000000       0.07402963 </v>
    <v>       0.00000000       0.00000000       0.14904032 </v>
    <v>       0.50000000       0.50000000       0.22169771 </v>
    <v>      -0.00000000       0.00000000       0.29707550 </v>
    <v>       0.50000000       0.50000000       0.36904848 </v>
   </varray>
  </structure>
  <varray name="forces" >
   <v>       0.00000000      -0.00000000       0.21348910 </v>
   <v>       0.00000000      -0.00000000      -0.21541658 </v>
   <v>       0.00000000      -0.00000000       0.00652055 </v>
   <v>       0.00000000      -0.00000000      -0.01009616 </v>
   <v>       0.00000000      -0.00000000      -0.00394474 </v>
   <v>       0.00000000       0.00000000       0.00944782 </v>
  </varray>
  <varray name="stress" >
   <v>     -30.02301644       0.00000000       0.00000000 </v>
   <v>       0.00000000     -30.02301644      -0.00000000 </v>
   <v>       0.00000000       0.00000000      -4.68542787 </v>
  </varray>
  <energy>
   <i name="e_fr_energy">    -46.75061599 </i>
   <i name="e_wo_entrp">    -46.74991658 </i>
   <i name="e_0_energy">     -0.00279763 </i>
  </energy>
  <time name="totalsc">  165.11  165.24</time>
 </calculation>
 <calculation>
  <scstep>
   <time name="dav">    7.08    7.09</time>
   <time name="total">    8.37    8.38</time>
   <energy>
    <i name="alphaZ">    164.12221242 </i>
    <i name="ewald">   9636.29923909 </i>
    <i name="hartreedc"> -13300.28388470 </i>
    <i name="XCdc">     24.83224034 </i>
    <i name="pawpsdc">   4195.10409372 </i>
    <i name="pawaedc">  -4249.33700138 </i>
    <i name="eentropy">     -0.00278683 </i>
    <i name="bandstr">    -83.26081138 </i>
    <i name="atom">   3565.76896863 </i>
    <i name="e_fr_energy">    -46.75773007 </i>
    <i name="e_wo_entrp">    -46.75494324 </i>
    <i name="e_0_energy">    -46.75703336 </i>
   </energy>
  </scstep>
  <scstep>
   <time name="diag">    2.02    2.02</time>
   <time name="diis">    6.14    6.15</time>
   <time name="orth">    0.04    0.04</time>
   <time name="total">    9.49    9.50</time>
   <energy>
    <i name="e_fr_energy">    -46.76302199 </i>
    <i name="e_wo_entrp">    -46.75963141 </i>
    <i name="e_0_energy">    -46.76217434 </i>
   </energy>
  </scstep>
  <scstep>
   <time name="diag">    2.04    2.04</time>
   <time name="diis">    5.80    5.81</time>
   <time name="orth">    0.04    0.04</time>
   <time name="total">    9.17    9.17</time>
   <energy>
    <i name="e_fr_energy">    -46.75973907 </i>
    <i name="e_wo_entrp">    -46.75652238 </i>
    <i name="e_0_energy">    -46.75893490 </i>
   </energy>
  </scstep>
  <scstep>
   <time name="diag">    2.02    2.02</time>
   <time name="diis">    6.58    6.59</time>
   <time name="orth">    0.04    0.04</time>
   <time name="total">    9.93    9.94</time>
   <energy>
    <i name="e_fr_energy">    -46.76067049 </i>
    <i name="e_wo_entrp">    -46.75759372 </i>
    <i name="e_0_energy">    -46.75990129 </i>
   </energy>
  </scstep>
  <scstep>
   <time name="diag">    2.03    2.03</time>
   <time name="diis">    5.91    5.92</time>
   <time name="orth">    0.04    0.04</time>
   <time name="total">    9.26    9.27</time>
   <energy>
    <i name="e_fr_energy">    -46.76050321 </i>
    <i name="e_wo_entrp">    -46.75732590 </i>
    <i name="e_0_energy">    -46.75970888 </i>
   </energy>
  </scstep>
  <scstep>
   <time name="diag">    2.02    2.02</time>
   <time name="diis">    6.08    6.09</time>
   <time name="orth">    0.04    0.04</time>
   <time name="total">    9.43    9.44</time>
   <energy>
    <i name="e_fr_energy">    -46.76043143 </i>
    <i name="e_wo_entrp">    -46.75723453 </i>
    <i name="e_0_energy">    -46.75963220 </i>
   </energy>
  </scstep>
  <scstep>
   <time name="diag">    2.03    2.03</time>
   <time name="diis">    5.65    5.65</time>
   <time name="orth">    0.04    0.04</time>
   <time name="total">    9.00    9.01</time>
   <energy>
    <i name="e_fr_energy">    -46.76041770 </i>
    <i name="e_wo_entrp">    -46.75715730 </i>
    <i name="e_0_energy">    -46.75960260 </i>
   </energy>
  </scstep>
  <scstep>
   <time name="diag">    2.02    2.03</time>
   <time name="diis">    5.59    5.59</time>
   <time name="orth">    0.04    0.04</time>
   <time name="total">    8.94    8.95</time>
   <energy>
    <i name="e_fr_energy">    -46.76037981 </i>
    <i name="e_wo_entrp">    -46.75714902 </i>
    <i name="e_0_energy">    -46.75957211 </i>
   </energy>
  </scstep>
  <scstep>
   <time name="diag">    2.03    2.03</time>
   <time name="diis">    5.68    5.69</time>
   <time name="orth">    0.04    0.04</time>
   <time name="total">    9.04    9.04</time>
   <energy>
    <i name="e_fr_energy">    -46.76033084 </i>
    <i name="e_wo_entrp">    -46.75707122 </i>
    <i name="e_0_energy">    -46.75951593 </i>
   </energy>
  </scstep>
  <scstep>
   <time name="diag">    2.02    2.02</time>
   <time name="diis">    5.16    5.16</time>
   <time name="orth">    0.04    0.04</time>
   <time name="total">    8.50    8.50</time>
   <energy>
    <i name="e_fr_energy">    -46.76023674 </i>
    <i name="e_wo_entrp">    -46.75697736 </i>
    <i name="e_0_energy">    -46.75942190 </i>
   </energy>
  </scstep>
  <scstep>
   <time name="diag">    2.02    2.03</time>
   <time name="diis">    4.46    4.46</time>
   <time name="orth">    0.04    0.04</time>
   <time name="total">    7.82    7.82</time>
   <energy>
    <i name="e_fr_energy">    -46.76017248 </i>
    <i name="e_wo_entrp">    -46.75689684 </i>
    <i name="e_0_energy">    -46.75935357 </i>
   </energy>
  </scstep>
  <scstep>
   <time name="diag">    2.04    2.04</time>
   <time name="diis">    4.08    4.08</time>
   <time name="orth">    0.04    0.04</time>
   <time name="total">    6.41    6.41</time>
   <energy>
    <i name="alphaZ">    164.12221242 </i>
    <i name="ewald">   9636.29923909 </i>
    <i name="hartreedc"> -13300.20282105 </i>
    <i name="XCdc">     24.84293656 </i>
    <i name="pawpsdc">   4194.75846536 </i>
    <i name="pawaedc">  -4248.99857668 </i>
    <i name="eentropy">     -0.00329310 </i>
    <i name="bandstr">    -83.34730679 </i>
    <i name="atom">   3565.76896863 </i>
    <i name="e_fr_energy">    -46.76017554 </i>
    <i name="e_wo_entrp">    -46.75688244 </i>
    <i name="e_0_energy">    -46.75935227 </i>
   </energy>
  </scstep>
  <structure>
   <crystal>
    <varray name="basis" >
     <v>       2.82084000       0.00000000       0.00000000 </v>
     <v>       0.00000000       2.82084000       0.00000000 </v>
     <v>       0.00000000       0.00000000      19.05210000 </v>
    </varray>
    <i name="volume">    151.60019471 </i>
    <varray name="rec_basis" >
     <v>       0.35450433       0.00000000       0.00000000 </v>
     <v>       0.00000000       0.35450433       0.00000000 </v>
     <v>       0.00000000       0.00000000       0.05248765 </v>
    </varray>
   </crystal>
   <varray name="positions" >
    <v>       0.00000000       0.00000000       0.00000000 </v>
    <v>       0.50000000       0.50000000       0.07402963 </v>
    <v>       0.00000000       0.00000000       0.14901397 </v>
    <v>       0.50000000       0.50000000       0.22166100 </v>
    <v>      -0.00000000       0.00000000       0.29707950 </v>
    <v>       0.50000000       0.50000000       0.36908183 </v>
   </varray>
  </structure>
  <varray name="forces" >
   <v>       0.00000000      -0.00000000       0.19083148 </v>
   <v>      -0.00000000      -0.00000000      -0.20883316 </v>
   <v>      -0.00000000       0.00000000       0.04984175 </v>
   <v>      -0.00000000      -0.00000000      -0.03198860 </v>
   <v>      -0.00000000      -0.00000000      -0.03860767 </v>
   <v>      -0.00000000      -0.00000000       0.03875620 </v>
  </varray>
  <varray name="stress" >
   <v>     -30.32206481       0.00000000       0.00000000 </v>
   <v>       0.00000000     -30.32206481       0.00000000 </v>
   <v>       0.00000000      -0.00000000      -4.10887502 </v>
  </varray>
  <energy>
   <i name="e_fr_energy">    -46.76017554 </i>
   <i name="e_wo_entrp">    -46.75935227 </i>
   <i name="e_0_energy">     -0.00329310 </i>
  </energy>
  <time name="totalsc">  109.44  109.52</time>
 </calculation>
 <calculation>
  <scstep>
   <time name="dav">    6.94    6.94</time>
   <time name="total">    8.23    8.23</time>
   <energy>
    <i name="alphaZ">    164.12221242 </i>
    <i name="ewald">   9633.23663364 </i>
    <i name="hartreedc"> -13297.16592734 </i>
    <i name="XCdc">     24.84016515 </i>
    <i name="pawpsdc">   4194.76447024 </i>
    <i name="pawaedc">  -4249.00497555 </i>
    <i name="eentropy">     -0.00334203 </i>
    <i name="bandstr">    -83.31827044 </i>
    <i name="atom">   3565.76896863 </i>
    <i name="e_fr_energy">    -46.76006527 </i>
    <i name="e_wo_entrp">    -46.75672324 </i>
    <i name="e_0_energy">    -46.75922977 </i>
   </energy>
  </scstep>
  <scstep>
   <time name="diag">    2.03    2.03</time>
   <time name="diis">    6.07    6.08</time>
   <time name="orth">    0.04    0.04</time>
   <time name="total">    9.42    9.43</time>
   <energy>
    <i name="e_fr_energy">    -46.76053369 </i>
    <i name="e_wo_entrp">    -46.75722318 </i>
    <i name="e_0_energy">    -46.75970607 </i>
   </energy>
  </scstep>
  <scstep>
   <time name="diag">    2.02    2.03</time>
   <time name="diis">    5.79    5.79</time>
   <time name="orth">    0.04    0.04</time>
   <time name="total">    9.14    9.15</time>
   <energy>
    <i name="e_fr_energy">    -46.76026503 </i>
    <i name="e_wo_entrp">    -46.75689847 </i>
    <i name="e_0_energy">    -46.75942339 </i>
   </energy>
  </scstep>
  <scstep>
   <time name="diag">    2.04    2.04</time>
   <time name="diis">    6.24    6.24</time>
   <time name="orth">    0.04    0.04</time>
   <time name="total">    9.60    9.62</time>
   <energy>
    <i name="e_fr_energy">    -46.76030259 </i>
    <i name="e_wo_entrp">    -46.75696637 </i>
    <i name="e_0_energy">    -46.75946853 </i>
   </energy>
  </scstep>
  <scstep>
   <time name="diag">    2.03    2.03</time>
   <time name="diis">    5.58    5.58</time>
   <time name="orth">    0.04    0.04</time>
   <time name="total">    8.93    8.94</time>
   <energy>
    <i name="e_fr_energy">    -46.76025976 </i>
    <i name="e_wo_entrp">    -46.75688582 </i>
    <i name="e_0_energy">    -46.75941627 </i>
   </energy>
  </scstep>
  <scstep>
   <time name="diag">    2.03    2.03</time>
   <time name="diis">    4.74    4.75</time>
   <time name="orth">    0.04    0.04</time>
   <time name="total">    8.10    8.11</time>
   <energy>
    <i name="e_fr_energy">    -46.76025911 </i>
    <i name="e_wo_entrp">    -46.75689743 </i>
    <i name="e_0_energy">    -46.75941869 </i>
   </energy>
  </scstep>
  <scstep>
   <time name="diag">    2.04    2.04</time>
   <time name="diis">    3.72    3.72</time>
   <time name="orth">    0.04    0.04</time>
   <time name="total">    6.05    6.06</time>
   <energy>
    <i name="alphaZ">    164.12221242 </i>
    <i name="ewald">   9633.23663364 </i>
    <i name="hartreedc"> -13297.17177616 </i>
    <i name="XCdc">     24.84078960 </i>
    <i name="pawpsdc">   4194.41516312 </i>
    <i name="pawaedc">  -4248.65248861 </i>
    <i name="eentropy">     -0.00336281 </i>
    <i name="bandstr">    -83.31640772 </i>
    <i name="atom">   3565.76896863 </i>
    <i name="e_fr_energy">    -46.76026788 </i>
[...]
       <r>    10.0566     0.0000    31.0000 </r>
       <r>    10.1491     0.0000    31.0000 </r>
       <r>    10.2416     0.0000    31.0000 </r>
       <r>    10.3342     0.0000    31.0000 </r>
       <r>    10.4267     0.0000    31.0000 </r>
       <r>    10.5192     0.0000    31.0000 </r>
       <r>    10.6117     0.0000    31.0000 </r>
       <r>    10.7042     0.0000    31.0000 </r>
       <r>    10.7968     0.0000    31.0000 </r>
       <r>    10.8893     0.0000    31.0000 </r>
       <r>    10.9818     0.0000    31.0000 </r>
       <r>    11.0743     0.0000    31.0000 </r>
       <r>    11.1669     0.0000    31.0000 </r>
       <r>    11.2594     0.0000    31.0000 </r>
       <r>    11.3519     0.0000    31.0000 </r>
       <r>    11.4444     0.0000    31.0000 </r>
       <r>    11.5369     0.0000    31.0000 </r>
       <r>    11.6295     0.0000    31.0000 </r>
       <r>    11.7220     0.0000    31.0000 </r>
       <r>    11.8145     0.0000    31.0000 </r>
       <r>    11.9070     0.0000    31.0000 </r>
       <r>    11.9995     0.0000    31.0000 </r>
       <r>    12.0921     0.0000    31.0000 </r>
       <r>    12.1846     0.0000    31.0000 </r>
       <r>    12.2771     0.0000    31.0000 </r>
       <r>    12.3696     0.0000    31.0000 </r>
       <r>    12.4621     0.0000    31.0000 </r>
       <r>    12.5547     0.0000    31.0000 </r>
       <r>    12.6472     0.0000    31.0000 </r>
       <r>    12.7397     0.0000    31.0000 </r>
       <r>    12.8322     0.0000    31.0000 </r>
       <r>    12.9247     0.0000    31.0000 </r>
       <r>    13.0173     0.0000    31.0000 </r>
       <r>    13.1098     0.0000    31.0000 </r>
       <r>    13.2023     0.0000    31.0000 </r>
       <r>    13.2948     0.0000    31.0000 </r>
       <r>    13.3874     0.0000    31.0000 </r>
       <r>    13.4799     0.0000    31.0000 </r>
       <r>    13.5724     0.0000    31.0000 </r>
       <r>    13.6649     0.0000    31.0000 </r>
       <r>    13.7574     0.0000    31.0000 </r>
       <r>    13.8500     0.0000    31.0000 </r>
       <r>    13.9425     0.0000    31.0000 </r>
       <r>    14.0350     0.0000    31.0000 </r>
       <r>    14.1275     0.0000    31.0000 </r>
       <r>    14.2200     0.0000    31.0000 </r>
       <r>    14.3126     0.0000    31.0000 </r>
       <r>    14.4051     0.0000    31.0000 </r>
       <r>    14.4976     0.0000    31.0000 </r>
       <r>    14.5901     0.0000    31.0000 </r>
       <r>    14.6826     0.0000    31.0000 </r>
       <r>    14.7752     0.0000    31.0000 </r>
       <r>    14.8677     0.0000    31.0000 </r>
       <r>    14.9602     0.0000    31.0000 </r>
       <r>    15.0527     0.0000    31.0000 </r>
       <r>    15.1452     0.0000    31.0000 </r>
       <r>    15.2378     0.0000    31.0000 </r>
       <r>    15.3303     0.0000    31.0000 </r>
       <r>    15.4228     0.0000    31.0000 </r>
       <r>    15.5153     0.0000    31.0000 </r>
       <r>    15.6079     0.0000    31.0000 </r>
       <r>    15.7004     0.0000    31.0000 </r>
       <r>    15.7929     0.0000    31.0000 </r>
       <r>    15.8854     0.0000    31.0000 </r>
       <r>    15.9779     0.0000    31.0000 </r>
       <r>    16.0705     0.0000    31.0000 </r>
       <r>    16.1630     0.0000    31.0000 </r>
       <r>    16.2555     0.0000    31.0000 </r>
       <r>    16.3480     0.0000    31.0000 </r>
       <r>    16.4405     0.0000    31.0000 </r>
       <r>    16.5331     0.0000    31.0000 </r>
       <r>    16.6256     0.0000    31.0000 </r>
       <r>    16.7181     0.0000    31.0000 </r>
       <r>    16.8106     0.0000    31.0000 </r>
       <r>    16.9031     0.0000    31.0000 </r>
       <r>    16.9957     0.0000    31.0000 </r>
      </set>
      <set comment="spin 2">
       <r>   -10.7606     0.0000     0.0000 </r>
       <r>   -10.6681     0.0000     0.0000 </r>
       <r>   -10.5756     0.0000     0.0000 </r>
       <r>   -10.4830     0.0000     0.0000 </r>
       <r>   -10.3905     0.0000     0.0000 </r>
       <r>   -10.2980     0.0000     0.0000 </r>
       <r>   -10.2055     0.0000     0.0000 </r>
       <r>   -10.1130     0.0000     0.0000 </r>
       <r>   -10.0204     0.0000     0.0000 </r>
       <r>    -9.9279     0.0000     0.0000 </r>
       <r>    -9.8354     0.0000     0.0000 </r>
       <r>    -9.7429     0.0000     0.0000 </r>
       <r>    -9.6503     0.0000     0.0000 </r>
       <r>    -9.5578     0.0000     0.0000 </r>
       <r>    -9.4653     0.0000     0.0000 </r>
       <r>    -9.3728     0.0000     0.0000 </r>
       <r>    -9.2803     0.0000     0.0000 </r>
       <r>    -9.1877     0.0000     0.0000 </r>
       <r>    -9.0952     0.0000     0.0000 </r>
       <r>    -9.0027     0.0000     0.0000 </r>
       <r>    -8.9102     0.0000     0.0000 </r>
       <r>    -8.8177     0.0000     0.0000 </r>
       <r>    -8.7251     0.0000     0.0000 </r>
       <r>    -8.6326     0.0000     0.0000 </r>
       <r>    -8.5401     0.0000     0.0000 </r>
       <r>    -8.4476     0.0000     0.0000 </r>
       <r>    -8.3551     0.0000     0.0000 </r>
       <r>    -8.2625     0.0000     0.0000 </r>
       <r>    -8.1700     0.0000     0.0000 </r>
       <r>    -8.0775     0.0000     0.0000 </r>
       <r>    -7.9850     0.0000     0.0000 </r>
       <r>    -7.8924     0.0000     0.0000 </r>
       <r>    -7.7999     0.0000     0.0000 </r>
       <r>    -7.7074     0.0000     0.0000 </r>
       <r>    -7.6149     0.0001     0.0000 </r>
       <r>    -7.5224     0.0017     0.0002 </r>
       <r>    -7.4298    -0.0142    -0.0012 </r>
       <r>    -7.3373     0.0763     0.0059 </r>
       <r>    -7.2448     0.3545     0.0387 </r>
       <r>    -7.1523     0.0193     0.0405 </r>
       <r>    -7.0598    -0.0065     0.0399 </r>
       <r>    -6.9672     0.0011     0.0400 </r>
       <r>    -6.8747     0.0000     0.0400 </r>
       <r>    -6.7822     0.0010     0.0401 </r>
       <r>    -6.6897     0.0070     0.0407 </r>
       <r>    -6.5972    -0.0963     0.0318 </r>
       <r>    -6.5046     0.8185     0.1076 </r>
       <r>    -6.4121     1.0807     0.2075 </r>
       <r>    -6.3196    -0.0853     0.1996 </r>
       <r>    -6.2271     0.0040     0.2000 </r>
       <r>    -6.1346    -0.0220     0.1980 </r>
       <r>    -6.0420     0.1942     0.2160 </r>
       <r>    -5.9495     0.2877     0.2426 </r>
       <r>    -5.8570    -0.1054     0.2328 </r>
       <r>    -5.7645     0.5921     0.2876 </r>
       <r>    -5.6719     1.2632     0.4045 </r>
       <r>    -5.5794    -0.0433     0.4005 </r>
       <r>    -5.4869    -0.0031     0.4002 </r>
       <r>    -5.3944    -0.0858     0.3922 </r>
       <r>    -5.3019     1.0525     0.4896 </r>
       <r>    -5.2093     0.8498     0.5682 </r>
       <r>    -5.1168    -0.0967     0.5593 </r>
       <r>    -5.0243     0.0067     0.5599 </r>
       <r>    -4.9318     0.0012     0.5600 </r>
       <r>    -4.8393     0.0049     0.5605 </r>
       <r>    -4.7467    -0.0295     0.5577 </r>
       <r>    -4.6542     0.1081     0.5677 </r>
       <r>    -4.5617     1.3809     0.6955 </r>
       <r>    -4.4692     0.5060     0.7423 </r>
       <r>    -4.3767     1.3651     0.8686 </r>
       <r>    -4.2841     0.4238     0.9078 </r>
       <r>    -4.1916     0.1485     0.9216 </r>
       <r>    -4.0991    -0.0024     0.9213 </r>
       <r>    -4.0066    -0.1565     0.9069 </r>
       <r>    -3.9141     1.0658     1.0055 </r>
       <r>    -3.8215     2.4955     1.2364 </r>
       <r>    -3.7290     1.1271     1.3406 </r>
       <r>    -3.6365     2.2247     1.5465 </r>
       <r>    -3.5440     0.1844     1.5635 </r>
       <r>    -3.4514    -0.0457     1.5593 </r>
       <r>    -3.3589     0.0172     1.5609 </r>
       <r>    -3.2664    -0.0332     1.5578 </r>
       <r>    -3.1739     0.0278     1.5604 </r>
       <r>    -3.0814     3.6201     1.8953 </r>
       <r>    -2.9888     4.8830     2.3471 </r>
       <r>    -2.8963     0.1965     2.3653 </r>
       <r>    -2.8038    -0.0723     2.3586 </r>
       <r>    -2.7113     0.1536     2.3728 </r>
       <r>    -2.6188     1.2784     2.4911 </r>
       <r>    -2.5262     2.2858     2.7026 </r>
       <r>    -2.4337     3.0557     2.9853 </r>
       <r>    -2.3412     2.9774     3.2608 </r>
       <r>    -2.2487     1.0285     3.3559 </r>
       <r>    -2.1562     4.4235     3.7652 </r>
       <r>    -2.0636     3.7805     4.1150 </r>
       <r>    -1.9711     4.0241     4.4873 </r>
       <r>    -1.8786     5.1268     4.9616 </r>
       <r>    -1.7861     3.4381     5.2797 </r>
       <r>    -1.6936     2.5058     5.5115 </r>
       <r>    -1.6010     3.2167     5.8092 </r>
       <r>    -1.5085     2.4436     6.0352 </r>
       <r>    -1.4160     1.5524     6.1789 </r>
       <r>    -1.3235     6.3037     6.7621 </r>
       <r>    -1.2309     3.8839     7.1214 </r>
       <r>    -1.1384     5.0776     7.5912 </r>
       <r>    -1.0459     4.6723     8.0235 </r>
       <r>    -0.9534    10.6813     9.0117 </r>
       <r>    -0.8609     5.3101     9.5030 </r>
       <r>    -0.7683     5.4510    10.0074 </r>
       <r>    -0.6758     7.5979    10.7103 </r>
       <r>    -0.5833     6.4462    11.3067 </r>
       <r>    -0.4908     5.1889    11.7868 </r>
       <r>    -0.3983     5.4852    12.2943 </r>
       <r>    -0.3057     5.4893    12.8022 </r>
       <r>    -0.2132     8.1032    13.5519 </r>
       <r>    -0.1207     6.5666    14.1595 </r>
       <r>    -0.0282     4.7440    14.5984 </r>
       <r>     0.0643     0.9399    14.6853 </r>
       <r>     0.1569     2.9499    14.9583 </r>
       <r>     0.2494     2.8968    15.2263 </r>
       <r>     0.3419     1.7983    15.3926 </r>
       <r>     0.4344     0.9741    15.4828 </r>
       <r>     0.5269     4.3393    15.8842 </r>
       <r>     0.6195     7.1758    16.5482 </r>
       <r>     0.7120     4.6793    16.9811 </r>
       <r>     0.8045     3.9193    17.3437 </r>
       <r>     0.8970     3.3974    17.6580 </r>
       <r>     0.9896     5.3241    18.1506 </r>
       <r>     1.0821     4.8150    18.5961 </r>
       <r>     1.1746     6.5332    19.2006 </r>
       <r>     1.2671     3.3171    19.5075 </r>
       <r>     1.3596     3.1503    19.7990 </r>
       <r>     1.4522     0.2558    19.8226 </r>
       <r>     1.5447     3.2040    20.1191 </r>
       <r>     1.6372    14.5131    21.4618 </r>
       <r>     1.7297     8.8688    22.2824 </r>
       <r>     1.8222     7.0111    22.9311 </r>
       <r>     1.9148     9.5612    23.8157 </r>
       <r>     2.0073    12.6053    24.9819 </r>
       <r>     2.0998     9.9622    25.9036 </r>
       <r>     2.1923     5.8128    26.4414 </r>
       <r>     2.2848     3.7102    26.7847 </r>
       <r>     2.3774    16.0676    28.2713 </r>
       <r>     2.4699    11.6864    29.3525 </r>
       <r>     2.5624     7.5367    30.0498 </r>
       <r>     2.6549     4.3600    30.4532 </r>
       <r>     2.7475     4.1899    30.8409 </r>
       <r>     2.8400     1.8370    31.0108 </r>
       <r>     2.9325    -0.1261    30.9992 </r>
       <r>     3.0250     0.0054    30.9997 </r>
       <r>     3.1175     0.0037    31.0000 </r>
       <r>     3.2101     0.0000    31.0000 </r>
       <r>     3.3026     0.0000    31.0000 </r>
       <r>     3.3951     0.0000    31.0000 </r>
       <r>     3.4876     0.0000    31.0000 </r>
       <r>     3.5801     0.0000    31.0000 </r>
       <r>     3.6727     0.0000    31.0000 </r>
       <r>     3.7652     0.0000    31.0000 </r>
       <r>     3.8577     0.0000    31.0000 </r>
       <r>     3.9502     0.0000    31.0000 </r>
       <r>     4.0427     0.0000    31.0000 </r>
       <r>     4.1353     0.0000    31.0000 </r>
       <r>     4.2278     0.0000    31.0000 </r>
       <r>     4.3203     0.0000    31.0000 </r>
       <r>     4.4128     0.0000    31.0000 </r>
       <r>     4.5053     0.0000    31.0000 </r>
       <r>     4.5979     0.0000    31.0000 </r>
       <r>     4.6904     0.0000    31.0000 </r>
       <r>     4.7829     0.0000    31.0000 </r>
       <r>     4.8754     0.0000    31.0000 </r>
       <r>     4.9680     0.0000    31.0000 </r>
       <r>     5.0605     0.0000    31.0000 </r>
       <r>     5.1530     0.0000    31.0000 </r>
       <r>     5.2455     0.0000    31.0000 </r>
       <r>     5.3380     0.0000    31.0000 </r>
       <r>     5.4306     0.0000    31.0000 </r>
       <r>     5.5231     0.0000    31.0000 </r>
       <r>     5.6156     0.0000    31.0000 </r>
       <r>     5.7081     0.0000    31.0000 </r>
       <r>     5.8006     0.0000    31.0000 </r>
       <r>     5.8932     0.0000    31.0000 </r>
       <r>     5.9857     0.0000    31.0000 </r>
       <r>     6.0782     0.0000    31.0000 </r>
       <r>     6.1707     0.0000    31.0000 </r>
       <r>     6.2632     0.0000    31.0000 </r>
       <r>     6.3558     0.0000    31.0000 </r>
       <r>     6.4483     0.0000    31.0000 </r>
       <r>     6.5408     0.0000    31.0000 </r>
       <r>     6.6333     0.0000    31.0000 </r>
       <r>     6.7258     0.0000    31.0000 </r>
       <r>     6.8184     0.0000    31.0000 </r>
       <r>     6.9109     0.0000    31.0000 </r>
       <r>     7.0034     0.0000    31.0000 </r>
       <r>     7.0959     0.0000    31.0000 </r>
       <r>     7.1885     0.0000    31.0000 </r>
       <r>     7.2810     0.0000    31.0000 </r>
       <r>     7.3735     0.0000    31.0000 </r>
       <r>     7.4660     0.0000    31.0000 </r>
       <r>     7.5585     0.0000    31.0000 </r>
       <r>     7.6511     0.0000    31.0000 </r>
       <r>     7.7436     0.0000    31.0000 </r>
       <r>     7.8361     0.0000    31.0000 </r>
       <r>     7.9286     0.0000    31.0000 </r>
       <r>     8.0211     0.0000    31.0000 </r>
       <r>     8.1137     0.0000    31.0000 </r>
       <r>     8.2062     0.0000    31.0000 </r>
       <r>     8.2987     0.0000    31.0000 </r>
       <r>     8.3912     0.0000    31.0000 </r>
       <r>     8.4837     0.0000    31.0000 </r>
       <r>     8.5763     0.0000    31.0000 </r>
       <r>     8.6688     0.0000    31.0000 </r>
       <r>     8.7613     0.0000    31.0000 </r>
       <r>     8.8538     0.0000    31.0000 </r>
       <r>     8.9463     0.0000    31.0000 </r>
       <r>     9.0389     0.0000    31.0000 </r>
       <r>     9.1314     0.0000    31.0000 </r>
       <r>     9.2239     0.0000    31.0000 </r>
       <r>     9.3164     0.0000    31.0000 </r>
       <r>     9.4090     0.0000    31.0000 </r>
       <r>     9.5015     0.0000    31.0000 </r>
       <r>     9.5940     0.0000    31.0000 </r>
       <r>     9.6865     0.0000    31.0000 </r>
       <r>     9.7790     0.0000    31.0000 </r>
       <r>     9.8716     0.0000    31.0000 </r>
       <r>     9.9641     0.0000    31.0000 </r>
       <r>    10.0566     0.0000    31.0000 </r>
       <r>    10.1491     0.0000    31.0000 </r>
       <r>    10.2416     0.0000    31.0000 </r>
       <r>    10.3342     0.0000    31.0000 </r>
       <r>    10.4267     0.0000    31.0000 </r>
       <r>    10.5192     0.0000    31.0000 </r>
       <r>    10.6117     0.0000    31.0000 </r>
       <r>    10.7042     0.0000    31.0000 </r>
       <r>    10.7968     0.0000    31.0000 </r>
       <r>    10.8893     0.0000    31.0000 </r>
       <r>    10.9818     0.0000    31.0000 </r>
       <r>    11.0743     0.0000    31.0000 </r>
       <r>    11.1669     0.0000    31.0000 </r>
       <r>    11.2594     0.0000    31.0000 </r>
       <r>    11.3519     0.0000    31.0000 </r>
       <r>    11.4444     0.0000    31.0000 </r>
       <r>    11.5369     0.0000    31.0000 </r>
       <r>    11.6295     0.0000    31.0000 </r>
       <r>    11.7220     0.0000    31.0000 </r>
       <r>    11.8145     0.0000    31.0000 </r>
       <r>    11.9070     0.0000    31.0000 </r>
       <r>    11.9995     0.0000    31.0000 </r>
       <r>    12.0921     0.0000    31.0000 </r>
       <r>    12.1846     0.0000    31.0000 </r>
       <r>    12.2771     0.0000    31.0000 </r>
       <r>    12.3696     0.0000    31.0000 </r>
       <r>    12.4621     0.0000    31.0000 </r>
       <r>    12.5547     0.0000    31.0000 </r>
       <r>    12.6472     0.0000    31.0000 </r>
       <r>    12.7397     0.0000    31.0000 </r>
       <r>    12.8322     0.0000    31.0000 </r>
       <r>    12.9247     0.0000    31.0000 </r>
       <r>    13.0173     0.0000    31.0000 </r>
       <r>    13.1098     0.0000    31.0000 </r>
       <r>    13.2023     0.0000    31.0000 </r>
       <r>    13.2948     0.0000    31.0000 </r>
       <r>    13.3874     0.0000    31.0000 </r>
       <r>    13.4799     0.0000    31.0000 </r>
       <r>    13.5724     0.0000    31.0000 </r>
       <r>    13.6649     0.0000    31.0000 </r>
       <r>    13.7574     0.0000    31.0000 </r>
       <r>    13.8500     0.0000    31.0000 </r>
       <r>    13.9425     0.0000    31.0000 </r>
       <r>    14.0350     0.0000    31.0000 </r>
       <r>    14.1275     0.0000    31.0000 </r>
       <r>    14.2200     0.0000    31.0000 </r>
       <r>    14.3126     0.0000    31.0000 </r>
       <r>    14.4051     0.0000    31.0000 </r>
       <r>    14.4976     0.0000    31.0000 </r>
       <r>    14.5901     0.0000    31.0000 </r>
       <r>    14.6826     0.0000    31.0000 </r>
       <r>    14.7752     0.0000    31.0000 </r>
       <r>    14.8677     0.0000    31.0000 </r>
       <r>    14.9602     0.0000    31.0000 </r>
       <r>    15.0527     0.0000    31.0000 </r>
       <r>    15.1452     0.0000    31.0000 </r>
       <r>    15.2378     0.0000    31.0000 </r>
       <r>    15.3303     0.0000    31.0000 </r>
       <r>    15.4228     0.0000    31.0000 </r>
       <r>    15.5153     0.0000    31.0000 </r>
       <r>    15.6079     0.0000    31.0000 </r>
       <r>    15.7004     0.0000    31.0000 </r>
       <r>    15.7929     0.0000    31.0000 </r>
       <r>    15.8854     0.0000    31.0000 </r>
       <r>    15.9779     0.0000    31.0000 </r>
       <r>    16.0705     0.0000    31.0000 </r>
       <r>    16.1630     0.0000    31.0000 </r>
       <r>    16.2555     0.0000    31.0000 </r>
       <r>    16.3480     0.0000    31.0000 </r>
       <r>    16.4405     0.0000    31.0000 </r>
       <r>    16.5331     0.0000    31.0000 </r>
       <r>    16.6256     0.0000    31.0000 </r>
       <r>    16.7181     0.0000    31.0000 </r>
       <r>    16.8106     0.0000    31.0000 </r>
       <r>    16.9031     0.0000    31.0000 </r>
       <r>    16.9957     0.0000    31.0000 </r>
      </set>
     </set>
    </array>
   </total>
  </dos>
 </calculation>
 <structure name="finalpos" >
  <crystal>
   <varray name="basis" >
    <v>       2.82084000       0.00000000       0.00000000 </v>
    <v>       0.00000000       2.82084000       0.00000000 </v>
    <v>       0.00000000       0.00000000      19.05210000 </v>
   </varray>
   <i name="volume">    151.60019471 </i>
   <varray name="rec_basis" >
    <v>       0.35450433       0.00000000       0.00000000 </v>
    <v>       0.00000000       0.35450433       0.00000000 </v>
    <v>       0.00000000       0.00000000       0.05248765 </v>
   </varray>
  </crystal>
  <varray name="positions" >
   <v>       0.00000000       0.00000000       0.00000000 </v>
   <v>       0.50000000       0.50000000       0.07402963 </v>
   <v>       0.00000000       0.00000000       0.14905087 </v>
   <v>       0.50000000       0.50000000       0.22056811 </v>
   <v>      -0.00000000       0.00000000       0.29585056 </v>
   <v>       0.50000000       0.50000000       0.36808377 </v>
  </varray>
  <varray name="selective"  type="logical" >
   <v type="logical" >  F  F  F </v>
   <v type="logical" >  F  F  F </v>
   <v type="logical" >  T  T  T </v>
   <v type="logical" >  T  T  T </v>
   <v type="logical" >  T  T  T </v>
   <v type="logical" >  T  T  T </v>
  </varray>
  <nose>
   <v>      -3.00000000       0.00000000       0.00010000       0.00010000 </v>
  </nose>
 </structure>
</modeling>
