Crystal                                 
           1
     2.820000    0.000000    0.000000
     0.000000    2.820000    0.000000
     0.000000    0.000000   19.050000
   Fe
   6
Direct configuration=     1
   0.00000000  0.00000000  0.00000000
   0.50000000  0.50000000  0.07401575
   0.00000000  0.00000000  0.14803150
   0.50000000  0.50000000  0.22204724
   0.00000000  0.00000000  0.34855643
   0.50000000  0.50000000  0.37007874
