   6   6   0   0
  0.3567399E+02  0.3986512E-09  0.2818890E-09  0.1904722E-08  0.5000000E-15
  1.000000000000000E-004
  CAR 
 Crystal                                 
     13.67289155     -9.10048830  301     -0.44080434      1.00000000
     -9.100  0.0000E+00  0.0000E+00  0.0000E+00  0.0000E+00
     -9.025  0.0000E+00  0.0000E+00  0.0000E+00  0.0000E+00
     -8.949  0.0000E+00  0.0000E+00  0.0000E+00  0.0000E+00
     -8.873  0.0000E+00  0.0000E+00  0.0000E+00  0.0000E+00
     -8.797  0.0000E+00  0.0000E+00  0.0000E+00  0.0000E+00
     -8.721  0.0000E+00  0.0000E+00  0.0000E+00  0.0000E+00
     -8.645  0.0000E+00  0.0000E+00  0.0000E+00  0.0000E+00
     -8.569  0.0000E+00  0.0000E+00  0.0000E+00  0.0000E+00
     -8.493  0.8368E-32  0.1536E-30  0.6352E-33  0.1166E-31
     -8.417  0.1372E-26  0.1910E-25  0.1041E-27  0.1450E-26
     -8.341  0.6874E-22  0.7249E-21  0.5218E-23  0.5503E-22
     -8.265  0.1043E-17  0.8309E-17  0.7919E-19  0.6308E-18
     -8.190  0.4743E-14  0.2843E-13  0.3601E-15  0.2159E-14
     -8.114  0.6306E-11  0.2824E-10  0.4790E-12  0.2146E-11
     -8.038  0.2363E-08  0.7804E-08  0.1799E-09  0.5946E-09
     -7.962  0.2301E-06  0.5419E-06  0.1765E-07  0.4173E-07
     -7.886  0.4509E-05  0.6494E-05  0.3599E-06  0.5347E-06
     -7.810 -0.8500E-05 -0.3001E-04 -0.2854E-06 -0.1743E-05
     -7.734 -0.8379E-04 -0.1940E-04 -0.6646E-05 -0.3216E-05
     -7.658  0.7267E-03  0.1008E-02  0.4852E-04  0.7327E-04
     -7.582  0.1115E-02  0.8656E-03  0.1331E-03  0.1390E-03
     -7.506  0.4476E-04 -0.5284E-04  0.1365E-03  0.1350E-03
     -7.430 -0.4469E-04 -0.3803E-04  0.1332E-03  0.1321E-03
     -7.355 -0.1786E-03 -0.1548E-03  0.1196E-03  0.1203E-03
     -7.279  0.1113E-02  0.1518E-02  0.2041E-03  0.2355E-03
     -7.203  0.2419E-02  0.2185E-02  0.3877E-03  0.4014E-03
     -7.127  0.2725E-03  0.5489E-04  0.4084E-03  0.4056E-03
     -7.051 -0.1215E-03 -0.9221E-04  0.3992E-03  0.3986E-03
     -6.975 -0.1711E-03 -0.1619E-03  0.3862E-03  0.3863E-03
     -6.899  0.1090E-02  0.1360E-02  0.4689E-03  0.4895E-03
     -6.823  0.2431E-02  0.2292E-02  0.6535E-03  0.6635E-03
     -6.747  0.3044E-03  0.1462E-03  0.6766E-03  0.6746E-03
     -6.671 -0.2024E-03 -0.1800E-03  0.6612E-03  0.6609E-03
     -6.595 -0.2061E-03 -0.1902E-03  0.6456E-03  0.6465E-03
     -6.520  0.3589E-02  0.3648E-02  0.9180E-03  0.9234E-03
     -6.444  0.3923E-02  0.3864E-02  0.1216E-02  0.1217E-02
     -6.368 -0.2041E-03 -0.1260E-03  0.1200E-02  0.1207E-02
     -6.292  0.3252E-03 -0.2382E-03  0.1225E-02  0.1189E-02
     -6.216  0.2040E-02  0.4066E-03  0.1380E-02  0.1220E-02
     -6.140  0.2622E-02  0.2395E-02  0.1579E-02  0.1402E-02
     -6.064  0.2691E-03  0.1295E-02  0.1599E-02  0.1500E-02
     -5.988  0.3382E-03  0.1083E-02  0.1625E-02  0.1582E-02
     -5.912  0.2525E-02  0.3192E-03  0.1817E-02  0.1606E-02
     -5.836  0.8325E-03 -0.2249E-03  0.1880E-02  0.1589E-02
     -5.760 -0.1357E-03  0.5041E-03  0.1870E-02  0.1628E-02
     -5.684 -0.3510E-03  0.2475E-02  0.1843E-02  0.1815E-02
     -5.609  0.8055E-03  0.5109E-03  0.1904E-02  0.1854E-02
     -5.533  0.7207E-02  0.2737E-02  0.2451E-02  0.2062E-02
     -5.457  0.3408E-02  0.4425E-02  0.2710E-02  0.2398E-02
     -5.381 -0.7976E-03  0.2257E-02  0.2649E-02  0.2569E-02
     -5.305  0.5850E-03  0.1454E-02  0.2694E-02  0.2680E-02
     -5.229  0.5180E-02 -0.3576E-03  0.3087E-02  0.2653E-02
     -5.153  0.4328E-02  0.4464E-03  0.3416E-02  0.2686E-02
     -5.077  0.2586E-02  0.5193E-02  0.3612E-02  0.3081E-02
     -5.001  0.1343E-02  0.5410E-02  0.3714E-02  0.3491E-02
     -4.925  0.2659E-02  0.2634E-02  0.3916E-02  0.3691E-02
     -4.849  0.5937E-02  0.2128E-02  0.4366E-02  0.3853E-02
     -4.774  0.2456E-02  0.4997E-02  0.4553E-02  0.4232E-02
     -4.698 -0.1214E-02  0.2944E-02  0.4461E-02  0.4456E-02
     -4.622  0.4251E-02  0.2103E-02  0.4783E-02  0.4615E-02
     -4.546  0.1768E-01  0.5399E-02  0.6126E-02  0.5025E-02
     -4.470  0.9711E-02  0.9334E-02  0.6863E-02  0.5734E-02
     -4.394  0.1394E-01  0.9606E-02  0.7921E-02  0.6463E-02
     -4.318  0.1058E-01  0.8982E-02  0.8724E-02  0.7145E-02
     -4.242  0.6949E-02  0.1200E-01  0.9251E-02  0.8056E-02
     -4.166  0.1297E-01  0.1003E-01  0.1024E-01  0.8817E-02
     -4.090  0.3252E-01  0.7861E-02  0.1270E-01  0.9414E-02
     -4.014  0.3434E-01  0.1642E-01  0.1531E-01  0.1066E-01
     -3.939  0.2698E-01  0.2725E-01  0.1736E-01  0.1273E-01
     -3.863  0.1960E-01  0.1006E-01  0.1885E-01  0.1349E-01
     -3.787  0.2542E-01  0.3570E-02  0.2078E-01  0.1376E-01
     -3.711  0.2385E-01  0.1581E-01  0.2259E-01  0.1496E-01
     -3.635  0.2747E-01  0.8942E-02  0.2467E-01  0.1564E-01
     -3.559  0.3148E-01  0.6440E-02  0.2706E-01  0.1613E-01
     -3.483  0.1556E-01  0.2010E-01  0.2824E-01  0.1766E-01
     -3.407  0.1985E-01  0.1833E-01  0.2975E-01  0.1905E-01
     -3.331  0.2426E-01  0.1287E-01  0.3159E-01  0.2003E-01
     -3.255  0.2897E-01  0.2122E-01  0.3379E-01  0.2164E-01
     -3.179  0.3282E-01  0.7429E-02  0.3628E-01  0.2220E-01
     -3.103  0.3549E-01  0.1120E-01  0.3898E-01  0.2305E-01
     -3.028  0.4797E-01  0.2039E-01  0.4262E-01  0.2460E-01
     -2.952  0.4061E-01  0.2797E-01  0.4570E-01  0.2672E-01
     -2.876  0.2466E-01  0.2480E-01  0.4757E-01  0.2860E-01
     -2.800  0.3515E-01  0.9895E-02  0.5024E-01  0.2936E-01
     -2.724  0.4004E-01  0.1590E-01  0.5328E-01  0.3056E-01
     -2.648  0.4355E-01  0.2050E-01  0.5659E-01  0.3212E-01
     -2.572  0.2979E-01  0.1417E-01  0.5885E-01  0.3319E-01
     -2.496  0.1838E-01  0.1194E-01  0.6024E-01  0.3410E-01
     -2.420  0.2714E-01  0.1419E-01  0.6230E-01  0.3518E-01
     -2.344  0.2533E-01  0.1732E-01  0.6423E-01  0.3649E-01
     -2.268  0.1693E-01  0.1969E-01  0.6551E-01  0.3799E-01
     -2.193  0.1462E-01  0.1595E-01  0.6662E-01  0.3920E-01
     -2.117  0.1812E-01  0.1553E-01  0.6800E-01  0.4038E-01
     -2.041  0.1380E-01  0.7209E-02  0.6904E-01  0.4092E-01
     -1.965  0.9631E-02  0.3465E-02  0.6978E-01  0.4119E-01
     -1.889  0.1013E-01  0.1193E-01  0.7054E-01  0.4209E-01
     -1.813  0.6419E-02  0.1517E-01  0.7103E-01  0.4324E-01
     -1.737  0.1036E-01  0.1120E-01  0.7182E-01  0.4409E-01
     -1.661  0.2249E-01  0.2434E-01  0.7353E-01  0.4594E-01
     -1.585  0.2636E-01  0.1634E-01  0.7553E-01  0.4718E-01
     -1.509  0.1768E-01  0.1954E-01  0.7687E-01  0.4867E-01
     -1.433  0.1014E-01  0.2563E-01  0.7764E-01  0.5061E-01
     -1.358  0.7681E-02  0.2015E-01  0.7822E-01  0.5214E-01
     -1.282  0.8474E-02  0.1413E-01  0.7887E-01  0.5321E-01
     -1.206  0.1471E-01  0.1947E-01  0.7998E-01  0.5469E-01
     -1.130  0.1445E-01  0.1507E-01  0.8108E-01  0.5584E-01
     -1.054  0.1030E-01  0.1745E-01  0.8186E-01  0.5716E-01
     -0.978  0.2118E-01  0.2165E-01  0.8347E-01  0.5880E-01
     -0.902  0.2530E-01  0.2195E-01  0.8539E-01  0.6047E-01
     -0.826  0.7672E-02  0.2052E-01  0.8597E-01  0.6203E-01
     -0.750  0.9004E-02  0.2768E-01  0.8666E-01  0.6413E-01
     -0.674  0.1529E-01  0.3287E-01  0.8782E-01  0.6662E-01
     -0.598  0.1483E-01  0.1599E-01  0.8894E-01  0.6784E-01
     -0.523  0.1706E-01  0.6801E-02  0.9024E-01  0.6835E-01
     -0.447  0.6271E-02  0.1102E-01  0.9071E-01  0.6919E-01
     -0.371 -0.3381E-03  0.2384E-01  0.9069E-01  0.7100E-01
     -0.295  0.1237E-01  0.2494E-01  0.9163E-01  0.7289E-01
     -0.219  0.2020E-01  0.2132E-01  0.9316E-01  0.7451E-01
     -0.143  0.2061E-01  0.2297E-01  0.9473E-01  0.7626E-01
     -0.067  0.1868E-01  0.1606E-01  0.9614E-01  0.7747E-01
      0.009  0.8487E-02  0.2320E-01  0.9679E-01  0.7924E-01
      0.085  0.1792E-01  0.3168E-01  0.9815E-01  0.8164E-01
      0.161  0.2123E-01  0.2364E-01  0.9976E-01  0.8343E-01
      0.237  0.1264E-01  0.2285E-01  0.1007E+00  0.8517E-01
      0.313  0.1131E-01  0.2674E-01  0.1016E+00  0.8720E-01
      0.388  0.2388E-02  0.2140E-01  0.1018E+00  0.8882E-01
      0.464  0.1212E-02  0.3001E-01  0.1019E+00  0.9110E-01
      0.540  0.4261E-02  0.2449E-01  0.1022E+00  0.9296E-01
      0.616  0.8662E-03  0.2489E-01  0.1022E+00  0.9485E-01
      0.692  0.1964E-02  0.3562E-01  0.1024E+00  0.9755E-01
      0.768  0.1007E-01  0.2979E-01  0.1032E+00  0.9982E-01
      0.844  0.3007E-02  0.1664E-01  0.1034E+00  0.1011E+00
      0.920 -0.6979E-03  0.6507E-02  0.1033E+00  0.1016E+00
      0.996  0.3583E-04  0.6455E-02  0.1033E+00  0.1021E+00
      1.072  0.1905E-04  0.7799E-02  0.1033E+00  0.1027E+00
      1.148  0.5884E-06  0.4323E-02  0.1033E+00  0.1030E+00
      1.223  0.4093E-08  0.4348E-02  0.1033E+00  0.1033E+00
      1.299  0.7636E-11  0.4423E-03  0.1033E+00  0.1033E+00
      1.375  0.4072E-14 -0.2091E-03  0.1033E+00  0.1033E+00
      1.451  0.7800E-18  0.3034E-04  0.1033E+00  0.1033E+00
      1.527  0.0000E+00  0.4327E-05  0.1033E+00  0.1033E+00
      1.603  0.0000E+00  0.8535E-07  0.1033E+00  0.1033E+00
      1.679  0.0000E+00  0.4073E-09  0.1033E+00  0.1033E+00
      1.755  0.0000E+00  0.5331E-12  0.1033E+00  0.1033E+00
      1.831  0.0000E+00  0.2012E-15  0.1033E+00  0.1033E+00
      1.907  0.0000E+00  0.0000E+00  0.1033E+00  0.1033E+00
      1.983  0.0000E+00  0.0000E+00  0.1033E+00  0.1033E+00
      2.058  0.0000E+00  0.0000E+00  0.1033E+00  0.1033E+00
      2.134  0.0000E+00  0.0000E+00  0.1033E+00  0.1033E+00
      2.210  0.0000E+00  0.0000E+00  0.1033E+00  0.1033E+00
      2.286  0.0000E+00  0.0000E+00  0.1033E+00  0.1033E+00
      2.362  0.0000E+00  0.0000E+00  0.1033E+00  0.1033E+00
      2.438  0.0000E+00  0.0000E+00  0.1033E+00  0.1033E+00
      2.514  0.0000E+00  0.0000E+00  0.1033E+00  0.1033E+00
      2.590  0.0000E+00  0.0000E+00  0.1033E+00  0.1033E+00
      2.666  0.0000E+00  0.0000E+00  0.1033E+00  0.1033E+00
      2.742  0.0000E+00  0.0000E+00  0.1033E+00  0.1033E+00
      2.818  0.0000E+00  0.0000E+00  0.1033E+00  0.1033E+00
      2.893  0.0000E+00  0.0000E+00  0.1033E+00  0.1033E+00
      2.969  0.0000E+00  0.0000E+00  0.1033E+00  0.1033E+00
      3.045  0.0000E+00  0.0000E+00  0.1033E+00  0.1033E+00
      3.121  0.0000E+00  0.0000E+00  0.1033E+00  0.1033E+00
      3.197  0.0000E+00  0.0000E+00  0.1033E+00  0.1033E+00
      3.273  0.0000E+00  0.0000E+00  0.1033E+00  0.1033E+00
      3.349  0.0000E+00  0.0000E+00  0.1033E+00  0.1033E+00
      3.425  0.0000E+00  0.0000E+00  0.1033E+00  0.1033E+00
      3.501  0.0000E+00  0.0000E+00  0.1033E+00  0.1033E+00
      3.577  0.0000E+00  0.0000E+00  0.1033E+00  0.1033E+00
      3.653  0.0000E+00  0.0000E+00  0.1033E+00  0.1033E+00
      3.729  0.0000E+00  0.0000E+00  0.1033E+00  0.1033E+00
      3.804  0.0000E+00  0.0000E+00  0.1033E+00  0.1033E+00
      3.880  0.0000E+00  0.0000E+00  0.1033E+00  0.1033E+00
      3.956  0.0000E+00  0.0000E+00  0.1033E+00  0.1033E+00
      4.032  0.0000E+00  0.0000E+00  0.1033E+00  0.1033E+00
      4.108  0.0000E+00  0.0000E+00  0.1033E+00  0.1033E+00
      4.184  0.0000E+00  0.0000E+00  0.1033E+00  0.1033E+00
      4.260  0.0000E+00  0.0000E+00  0.1033E+00  0.1033E+00
      4.336  0.0000E+00  0.0000E+00  0.1033E+00  0.1033E+00
      4.412  0.0000E+00  0.0000E+00  0.1033E+00  0.1033E+00
      4.488  0.0000E+00  0.0000E+00  0.1033E+00  0.1033E+00
      4.564  0.0000E+00  0.0000E+00  0.1033E+00  0.1033E+00
      4.639  0.0000E+00  0.0000E+00  0.1033E+00  0.1033E+00
      4.715  0.0000E+00  0.0000E+00  0.1033E+00  0.1033E+00
      4.791  0.0000E+00  0.0000E+00  0.1033E+00  0.1033E+00
      4.867  0.0000E+00  0.0000E+00  0.1033E+00  0.1033E+00
      4.943  0.0000E+00  0.0000E+00  0.1033E+00  0.1033E+00
      5.019  0.0000E+00  0.0000E+00  0.1033E+00  0.1033E+00
      5.095  0.0000E+00  0.0000E+00  0.1033E+00  0.1033E+00
      5.171  0.0000E+00  0.0000E+00  0.1033E+00  0.1033E+00
      5.247  0.0000E+00  0.0000E+00  0.1033E+00  0.1033E+00
      5.323  0.0000E+00  0.0000E+00  0.1033E+00  0.1033E+00
      5.399  0.0000E+00  0.0000E+00  0.1033E+00  0.1033E+00
      5.474  0.0000E+00  0.0000E+00  0.1033E+00  0.1033E+00
      5.550  0.0000E+00  0.0000E+00  0.1033E+00  0.1033E+00
      5.626  0.0000E+00  0.0000E+00  0.1033E+00  0.1033E+00
      5.702  0.0000E+00  0.0000E+00  0.1033E+00  0.1033E+00
      5.778  0.0000E+00  0.0000E+00  0.1033E+00  0.1033E+00
      5.854  0.0000E+00  0.0000E+00  0.1033E+00  0.1033E+00
      5.930  0.0000E+00  0.0000E+00  0.1033E+00  0.1033E+00
      6.006  0.0000E+00  0.0000E+00  0.1033E+00  0.1033E+00
      6.082  0.0000E+00  0.0000E+00  0.1033E+00  0.1033E+00
      6.158  0.0000E+00  0.0000E+00  0.1033E+00  0.1033E+00
      6.234  0.0000E+00  0.0000E+00  0.1033E+00  0.1033E+00
      6.309  0.0000E+00  0.0000E+00  0.1033E+00  0.1033E+00
      6.385  0.0000E+00  0.0000E+00  0.1033E+00  0.1033E+00
      6.461  0.0000E+00  0.0000E+00  0.1033E+00  0.1033E+00
      6.537  0.0000E+00  0.0000E+00  0.1033E+00  0.1033E+00
      6.613  0.0000E+00  0.0000E+00  0.1033E+00  0.1033E+00
      6.689  0.0000E+00  0.0000E+00  0.1033E+00  0.1033E+00
      6.765  0.0000E+00  0.0000E+00  0.1033E+00  0.1033E+00
      6.841  0.0000E+00  0.0000E+00  0.1033E+00  0.1033E+00
      6.917  0.0000E+00  0.0000E+00  0.1033E+00  0.1033E+00
      6.993  0.0000E+00  0.0000E+00  0.1033E+00  0.1033E+00
      7.069  0.0000E+00  0.0000E+00  0.1033E+00  0.1033E+00
      7.145  0.0000E+00  0.0000E+00  0.1033E+00  0.1033E+00
      7.220  0.0000E+00  0.0000E+00  0.1033E+00  0.1033E+00
      7.296  0.0000E+00  0.0000E+00  0.1033E+00  0.1033E+00
      7.372  0.0000E+00  0.0000E+00  0.1033E+00  0.1033E+00
      7.448  0.0000E+00  0.0000E+00  0.1033E+00  0.1033E+00
      7.524  0.0000E+00  0.0000E+00  0.1033E+00  0.1033E+00
      7.600  0.0000E+00  0.0000E+00  0.1033E+00  0.1033E+00
      7.676  0.0000E+00  0.0000E+00  0.1033E+00  0.1033E+00
      7.752  0.0000E+00  0.0000E+00  0.1033E+00  0.1033E+00
      7.828  0.0000E+00  0.0000E+00  0.1033E+00  0.1033E+00
      7.904  0.0000E+00  0.0000E+00  0.1033E+00  0.1033E+00
      7.980  0.0000E+00  0.0000E+00  0.1033E+00  0.1033E+00
      8.055  0.0000E+00  0.0000E+00  0.1033E+00  0.1033E+00
      8.131  0.0000E+00  0.0000E+00  0.1033E+00  0.1033E+00
      8.207  0.0000E+00  0.0000E+00  0.1033E+00  0.1033E+00
      8.283  0.0000E+00  0.0000E+00  0.1033E+00  0.1033E+00
      8.359  0.0000E+00  0.0000E+00  0.1033E+00  0.1033E+00
      8.435  0.0000E+00  0.0000E+00  0.1033E+00  0.1033E+00
      8.511  0.0000E+00  0.0000E+00  0.1033E+00  0.1033E+00
      8.587  0.0000E+00  0.0000E+00  0.1033E+00  0.1033E+00
      8.663  0.0000E+00  0.0000E+00  0.1033E+00  0.1033E+00
      8.739  0.0000E+00  0.0000E+00  0.1033E+00  0.1033E+00
      8.815  0.0000E+00  0.0000E+00  0.1033E+00  0.1033E+00
      8.890  0.0000E+00  0.0000E+00  0.1033E+00  0.1033E+00
      8.966  0.0000E+00  0.0000E+00  0.1033E+00  0.1033E+00
      9.042  0.0000E+00  0.0000E+00  0.1033E+00  0.1033E+00
      9.118  0.0000E+00  0.0000E+00  0.1033E+00  0.1033E+00
      9.194  0.0000E+00  0.0000E+00  0.1033E+00  0.1033E+00
      9.270  0.0000E+00  0.0000E+00  0.1033E+00  0.1033E+00
      9.346  0.0000E+00  0.0000E+00  0.1033E+00  0.1033E+00
      9.422  0.0000E+00  0.0000E+00  0.1033E+00  0.1033E+00
      9.498  0.0000E+00  0.0000E+00  0.1033E+00  0.1033E+00
      9.574  0.0000E+00  0.0000E+00  0.1033E+00  0.1033E+00
      9.650  0.0000E+00  0.0000E+00  0.1033E+00  0.1033E+00
      9.726  0.0000E+00  0.0000E+00  0.1033E+00  0.1033E+00
      9.801  0.0000E+00  0.0000E+00  0.1033E+00  0.1033E+00
      9.877  0.0000E+00  0.0000E+00  0.1033E+00  0.1033E+00
      9.953  0.0000E+00  0.0000E+00  0.1033E+00  0.1033E+00
     10.029  0.0000E+00  0.0000E+00  0.1033E+00  0.1033E+00
     10.105  0.0000E+00  0.0000E+00  0.1033E+00  0.1033E+00
     10.181  0.0000E+00  0.0000E+00  0.1033E+00  0.1033E+00
     10.257  0.0000E+00  0.0000E+00  0.1033E+00  0.1033E+00
     10.333  0.0000E+00  0.0000E+00  0.1033E+00  0.1033E+00
     10.409  0.0000E+00  0.0000E+00  0.1033E+00  0.1033E+00
     10.485  0.0000E+00  0.0000E+00  0.1033E+00  0.1033E+00
     10.561  0.0000E+00  0.0000E+00  0.1033E+00  0.1033E+00
     10.636  0.0000E+00  0.0000E+00  0.1033E+00  0.1033E+00
     10.712  0.0000E+00  0.0000E+00  0.1033E+00  0.1033E+00
     10.788  0.0000E+00  0.0000E+00  0.1033E+00  0.1033E+00
     10.864  0.0000E+00  0.0000E+00  0.1033E+00  0.1033E+00
     10.940  0.0000E+00  0.0000E+00  0.1033E+00  0.1033E+00
     11.016  0.0000E+00  0.0000E+00  0.1033E+00  0.1033E+00
     11.092  0.0000E+00  0.0000E+00  0.1033E+00  0.1033E+00
     11.168  0.0000E+00  0.0000E+00  0.1033E+00  0.1033E+00
     11.244  0.0000E+00  0.0000E+00  0.1033E+00  0.1033E+00
     11.320  0.0000E+00  0.0000E+00  0.1033E+00  0.1033E+00
     11.396  0.0000E+00  0.0000E+00  0.1033E+00  0.1033E+00
     11.471  0.0000E+00  0.0000E+00  0.1033E+00  0.1033E+00
     11.547  0.0000E+00  0.0000E+00  0.1033E+00  0.1033E+00
     11.623  0.0000E+00  0.0000E+00  0.1033E+00  0.1033E+00
     11.699  0.0000E+00  0.0000E+00  0.1033E+00  0.1033E+00
     11.775  0.0000E+00  0.0000E+00  0.1033E+00  0.1033E+00
     11.851  0.0000E+00  0.0000E+00  0.1033E+00  0.1033E+00
     11.927  0.0000E+00  0.0000E+00  0.1033E+00  0.1033E+00
     12.003  0.0000E+00  0.0000E+00  0.1033E+00  0.1033E+00
     12.079  0.0000E+00  0.0000E+00  0.1033E+00  0.1033E+00
     12.155  0.0000E+00  0.0000E+00  0.1033E+00  0.1033E+00
     12.231  0.0000E+00  0.0000E+00  0.1033E+00  0.1033E+00
     12.306  0.0000E+00  0.0000E+00  0.1033E+00  0.1033E+00
     12.382  0.0000E+00  0.0000E+00  0.1033E+00  0.1033E+00
     12.458  0.0000E+00  0.0000E+00  0.1033E+00  0.1033E+00
     12.534  0.0000E+00  0.0000E+00  0.1033E+00  0.1033E+00
     12.610  0.0000E+00  0.0000E+00  0.1033E+00  0.1033E+00
     12.686  0.0000E+00  0.0000E+00  0.1033E+00  0.1033E+00
     12.762  0.0000E+00  0.0000E+00  0.1033E+00  0.1033E+00
     12.838  0.0000E+00  0.0000E+00  0.1033E+00  0.1033E+00
     12.914  0.0000E+00  0.0000E+00  0.1033E+00  0.1033E+00
     12.990  0.0000E+00  0.0000E+00  0.1033E+00  0.1033E+00
     13.066  0.0000E+00  0.0000E+00  0.1033E+00  0.1033E+00
     13.142  0.0000E+00  0.0000E+00  0.1033E+00  0.1033E+00
     13.217  0.0000E+00  0.0000E+00  0.1033E+00  0.1033E+00
     13.293  0.0000E+00  0.0000E+00  0.1033E+00  0.1033E+00
     13.369  0.0000E+00  0.0000E+00  0.1033E+00  0.1033E+00
     13.445  0.0000E+00  0.0000E+00  0.1033E+00  0.1033E+00
     13.521  0.0000E+00  0.0000E+00  0.1033E+00  0.1033E+00
     13.597  0.0000E+00  0.0000E+00  0.1033E+00  0.1033E+00
     13.673  0.0000E+00  0.0000E+00  0.1033E+00  0.1033E+00
