    6    6  300    2
  0.3567399E+02  0.3986512E-09  0.2818890E-09  0.1904722E-08  0.5000000E-15
  1.000000000000000E-004
  CAR 
 Crystal                                 
   48    9   31
 
  0.0000000E+00  0.0000000E+00  0.0000000E+00  0.4000000E-01
   1       -7.645134     -7.662862
   2       -6.272065     -6.027467
   3       -4.603185     -4.368688
   4       -4.429620     -4.278723
   5       -4.198356     -3.992952
   6       -4.141755     -3.179649
   7       -3.722349     -3.023460
   8       -3.619888     -2.965350
   9       -3.300359     -2.831494
  10       -3.061114     -2.739623
  11       -3.052242     -2.577330
  12       -3.002432     -2.458676
  13       -2.991886     -2.400160
  14       -2.874809     -1.829674
  15       -2.810344     -1.739263
  16       -2.760692     -1.644026
  17       -2.756313     -1.397022
  18       -2.687857     -1.189863
  19       -2.668059     -0.802457
  20       -2.440012     -0.663804
  21       -2.404020     -0.580248
  22       -2.291971     -0.405201
  23       -1.613676     -0.357088
  24       -1.604594      0.010556
  25       -1.570544      0.246537
  26       -0.980580      0.272616
  27       -0.720390      0.293033
  28       -0.557824      0.396491
  29       -0.252187      0.499592
  30        0.109358      0.615838
  31        0.202666      0.654927
 
  0.2000000E+00  0.0000000E+00  0.0000000E+00  0.8000000E-01
   1       -7.255493     -7.267473
   2       -5.944270     -5.716500
   3       -4.596965     -4.343468
   4       -4.417491     -4.264982
   5       -4.262481     -3.981786
   6       -4.146421     -3.258158
   7       -3.743540     -3.140494
   8       -3.578853     -2.870899
   9       -3.329444     -2.857155
  10       -3.197816     -2.707297
  11       -3.081720     -2.663159
  12       -3.049906     -2.373377
  13       -2.952827     -2.111322
  14       -2.850773     -1.867254
  15       -2.781441     -1.719695
  16       -2.762694     -1.709896
  17       -2.706329     -1.416920
  18       -2.696334     -1.245222
  19       -2.480088     -0.927816
  20       -2.404350     -0.692375
  21       -2.365143     -0.480197
  22       -1.892974     -0.387740
  23       -1.647904     -0.285410
  24       -1.600683      0.011390
  25       -1.586948      0.158368
  26       -1.051892      0.264093
  27       -0.765463      0.311867
  28       -0.530626      0.367161
  29       -0.281597      0.394648
  30        0.036553      0.705446
  31        0.109815      0.784614
 
  0.4000000E+00  0.0000000E+00  0.0000000E+00  0.8000000E-01
   1       -6.184051     -6.167904
   2       -5.176480     -5.032694
   3       -4.837284     -4.715874
   4       -4.569931     -4.399479
   5       -4.464157     -3.902059
   6       -4.340006     -3.482561
   7       -3.618163     -3.074758
   8       -3.420097     -2.939602
   9       -3.256706     -2.920409
  10       -3.215756     -2.793307
  11       -3.114073     -2.760125
  12       -3.111772     -2.512350
  13       -3.070297     -2.137650
  14       -2.947924     -1.847502
  15       -2.842320     -1.840244
  16       -2.792108     -1.409585
  17       -2.758449     -1.268650
  18       -2.653621     -1.025717
  19       -2.315742     -0.838856
  20       -2.160325     -0.709400
  21       -2.083885     -0.673870
  22       -1.927744     -0.255156
  23       -1.845884     -0.247788
  24       -1.608770     -0.140105
  25       -1.492927     -0.028039
  26       -1.304958      0.096995
  27       -0.683541      0.245954
  28       -0.562057      0.263790
  29       -0.236038      0.476969
  30       -0.213606      0.751808
  31       -0.127174      0.804584
 
  0.0000000E+00  0.2000000E+00  0.0000000E+00  0.8000000E-01
   1       -6.875211     -6.883215
   2       -5.563147     -5.389943
   3       -4.155338     -4.148777
   4       -4.087211     -4.028467
   5       -4.011773     -3.731762
   6       -3.974591     -3.547821
   7       -3.720880     -3.325335
   8       -3.661117     -2.991961
   9       -3.615711     -2.882232
  10       -3.453075     -2.663410
  11       -3.301580     -2.551848
  12       -3.205643     -2.229510
  13       -3.166241     -2.166621
  14       -3.035701     -1.676084
  15       -2.833960     -1.488757
  16       -2.806972     -1.416135
  17       -2.681059     -1.205222
  18       -2.596494     -1.091207
  19       -2.452790     -1.004912
  20       -2.308800     -0.866090
  21       -2.186899     -0.709880
  22       -1.950800     -0.387818
  23       -1.818633     -0.176058
  24       -1.506789      0.039662
  25       -1.172906      0.132899
  26       -0.967520      0.220604
  27       -0.779570      0.389936
  28       -0.324844      0.575533
  29       -0.067427      0.606106
  30        0.244326      0.683409
  31        0.295007      0.753789
 
  0.2000000E+00  0.2000000E+00  0.0000000E+00  0.1600000E+00
   1       -6.516731     -6.517739
   2       -5.255919     -5.102042
   3       -4.133611     -4.066775
   4       -4.039383     -3.966444
   5       -3.977356     -3.693615
   6       -3.875785     -3.488648
   7       -3.782396     -3.332206
   8       -3.667744     -3.026205
   9       -3.542140     -2.926990
  10       -3.408384     -2.750459
  11       -3.304938     -2.444126
  12       -3.193512     -2.294650
  13       -3.115212     -2.182925
  14       -3.019496     -1.718080
  15       -2.892078     -1.519435
  16       -2.784017     -1.417967
  17       -2.687693     -1.201011
  18       -2.637702     -1.066280
  19       -2.514997     -0.907040
  20       -2.349961     -0.777254
  21       -2.202654     -0.687630
  22       -2.120885     -0.365501
  23       -1.694008     -0.211140
  24       -1.354102     -0.163904
  25       -1.240539      0.060722
  26       -0.956361      0.168720
  27       -0.776732      0.290519
  28       -0.243648      0.401676
  29       -0.159603      0.524372
  30       -0.054627      0.702255
  31        0.092478      0.779510
 
  0.4000000E+00  0.2000000E+00  0.0000000E+00  0.1600000E+00
   1       -5.551609     -5.520856
   2       -4.571373     -4.489177
   3       -4.436676     -4.290378
   4       -4.125272     -3.996095
   5       -3.993754     -3.586969
   6       -3.862423     -3.428197
   7       -3.602719     -3.289605
   8       -3.539146     -3.093210
   9       -3.446513     -3.008877
  10       -3.320833     -2.941955
  11       -3.280080     -2.478613
  12       -3.167872     -2.349498
  13       -3.101510     -2.033132
  14       -3.012002     -1.892227
  15       -2.953087     -1.583523
  16       -2.850344     -1.359830
  17       -2.802046     -1.217042
  18       -2.678504     -0.986844
  19       -2.640030     -0.814278
  20       -2.488920     -0.722285
  21       -2.249527     -0.630084
  22       -1.970534     -0.438731
  23       -1.693411     -0.288002
  24       -1.498548     -0.177236
  25       -1.084470     -0.010425
  26       -1.031772      0.068644
  27       -0.673486      0.113762
  28       -0.538414      0.220166
  29       -0.188400      0.444187
  30       -0.121810      0.627078
  31        0.115819      0.699466
 
  0.0000000E+00  0.4000000E+00  0.0000000E+00  0.8000000E-01
   1       -5.077166     -4.967997
   2       -4.577117     -4.611422
   3       -4.226282     -4.230684
   4       -4.111431     -3.965073
   5       -4.070734     -3.798567
   6       -4.024277     -3.529175
   7       -3.864710     -3.492653
   8       -3.775771     -2.949117
   9       -3.702852     -2.733177
  10       -3.476669     -2.641087
  11       -3.207681     -2.298214
  12       -3.090398     -1.933533
  13       -3.026792     -1.654712
  14       -2.934925     -1.512447
  15       -2.789500     -1.443217
  16       -2.641648     -1.073279
  17       -2.563783     -0.979349
  18       -2.542377     -0.887019
  19       -2.436120     -0.798618
  20       -2.131188     -0.706218
  21       -1.754348     -0.494287
  22       -1.573486     -0.371690
  23       -1.004368     -0.069817
  24       -0.945013      0.244964
  25       -0.879411      0.426160
  26       -0.571489      0.536201
  27       -0.532400      0.648647
  28        0.170351      0.696262
  29        0.243641      0.715787
  30        0.468094      0.852942
  31        0.529303      1.058842
 
  0.2000000E+00  0.4000000E+00  0.0000000E+00  0.1600000E+00
   1       -4.912202     -4.821231
   2       -4.409679     -4.419300
   3       -4.154391     -4.094649
   4       -4.106650     -3.943416
   5       -4.043422     -3.730054
   6       -3.935910     -3.496568
   7       -3.798331     -3.307991
   8       -3.651578     -2.956460
   9       -3.607587     -2.702421
  10       -3.404759     -2.565883
  11       -3.205324     -2.311900
  12       -3.101130     -1.882577
  13       -3.046752     -1.726818
  14       -2.975501     -1.526446
  15       -2.765474     -1.450509
  16       -2.676134     -1.274798
  17       -2.550667     -1.131569
  18       -2.437340     -0.923381
  19       -2.405327     -0.740175
  20       -2.122528     -0.558958
  21       -1.754969     -0.422625
  22       -1.644937     -0.343616
  23       -1.250782     -0.089727
  24       -1.186646      0.011335
  25       -0.918728      0.255082
  26       -0.686061      0.449650
  27       -0.284156      0.526188
  28       -0.118282      0.624533
  29        0.049565      0.679281
  30        0.277912      0.836138
  31        0.731743      1.168082
 
  0.4000000E+00  0.4000000E+00  0.0000000E+00  0.1600000E+00
   1       -4.582043     -4.538674
   2       -4.305350     -4.206103
   3       -4.061690     -3.975440
   4       -3.965850     -3.760276
   5       -3.853686     -3.435029
   6       -3.795922     -3.285374
   7       -3.729995     -3.140315
   8       -3.611345     -3.058036
   9       -3.390359     -2.635360
  10       -3.300188     -2.393287
  11       -3.218633     -2.257922
  12       -3.069924     -2.161302
  13       -3.018318     -1.685124
  14       -2.951316     -1.628304
  15       -2.843930     -1.520343
  16       -2.706655     -1.313471
  17       -2.627360     -1.072328
  18       -2.407449     -0.970933
  19       -2.284301     -0.829356
  20       -2.035962     -0.744522
  21       -1.678651     -0.323456
  22       -1.582727     -0.213887
  23       -1.417713     -0.063185
  24       -1.157621      0.033751
  25       -0.982973      0.105803
  26       -0.936406      0.364455
  27       -0.616164      0.436717
  28       -0.329420      0.545865
  29        0.061001      0.631149
  30        0.167145      0.953398
  31        0.735341      1.023169
