 running on    1 total cores
 distrk:  each k-point on    1 cores,    1 groups
 distr:  one band on    1 cores,    1 groups
 using from now: INCAR     
 vasp.5.3.3 18Dez12 (build Sep  7 2015 22:32:56) complex                        
  
 POSCAR found type information on POSCAR  Fe
 POSCAR found :  1 types and       6 ions
 LDA part: xc-table for Pade appr. of Perdew
 POSCAR, INCAR and KPOINTS ok, starting setup
 WARNING: small aliasing (wrap around) errors must be expected
 FFT: planning ...
 WAVECAR not read
 entering main loop
       N       E                     dE             d eps       ncg     rms          rms(c)
DAV:   1     0.293847166321E+03    0.29385E+03   -0.15245E+04  1116   0.108E+03
DAV:   2    -0.197630902857E+02   -0.31361E+03   -0.29943E+03  1116   0.336E+02
DAV:   3    -0.440432545375E+02   -0.24280E+02   -0.22471E+02  1886   0.894E+01
DAV:   4    -0.463777444952E+02   -0.23345E+01   -0.22381E+01  1669   0.318E+01
DAV:   5    -0.466275427871E+02   -0.24980E+00   -0.24016E+00  1848   0.643E+00
DAV:   6    -0.466590559907E+02   -0.31513E-01   -0.30479E-01  1600   0.143E+00
DAV:   7    -0.466658827598E+02   -0.68268E-02   -0.68028E-02  1889   0.432E-01
DAV:   8    -0.466681581344E+02   -0.22754E-02   -0.22504E-02  1337   0.168E-01
DAV:   9    -0.466687096224E+02   -0.55149E-03   -0.54960E-03  1287   0.818E-02
DAV:  10    -0.466688521256E+02   -0.14250E-03   -0.14287E-03  1011   0.334E-02    0.234E+01
RMM:  11    -0.770917099645E+02   -0.30423E+02   -0.21276E+02  1302   0.130E+02    0.729E+01
RMM:  12    -0.490948034050E+02    0.27997E+02   -0.55836E+01  1122   0.769E+01    0.493E+01
RMM:  13    -0.467241542224E+02    0.23706E+01   -0.57893E+01  1160   0.633E+01    0.352E+01
RMM:  14    -0.420049969884E+02    0.47192E+01   -0.96904E+00  1145   0.295E+01    0.253E+01
RMM:  15    -0.422440141267E+02   -0.23902E+00   -0.81767E+00  1186   0.198E+01    0.302E+01
RMM:  16    -0.413896789566E+02    0.85434E+00   -0.64340E+00  1212   0.180E+01    0.249E+01
RMM:  17    -0.411754824704E+02    0.21420E+00   -0.68974E+00  1213   0.181E+01    0.221E+01
RMM:  18    -0.404452734336E+02    0.73021E+00   -0.29026E+00  1211   0.117E+01    0.186E+01
RMM:  19    -0.399219619836E+02    0.52331E+00   -0.99243E-01  1326   0.460E+00    0.163E+01
RMM:  20    -0.399452006169E+02   -0.23239E-01   -0.41604E-01  1640   0.139E+00    0.166E+01
RMM:  21    -0.399493242571E+02   -0.41236E-02   -0.16108E-01  1322   0.215E+00    0.169E+01
RMM:  22    -0.398590060506E+02    0.90318E-01   -0.13756E-01  1203   0.274E+00    0.169E+01
RMM:  23    -0.398174162398E+02    0.41590E-01   -0.11316E-01  1510   0.122E+00    0.166E+01
RMM:  24    -0.398184240515E+02   -0.10078E-02   -0.48623E-02  1351   0.954E-01    0.165E+01
RMM:  25    -0.397967213195E+02    0.21703E-01   -0.39640E-01  1285   0.326E+00    0.159E+01
RMM:  26    -0.395334159700E+02    0.26331E+00   -0.92678E-01  1445   0.383E+00    0.116E+01
RMM:  27    -0.396587349840E+02   -0.12532E+00   -0.58370E-01  1575   0.220E+00    0.109E+01
RMM:  28    -0.396817208110E+02   -0.22986E-01   -0.10916E+00  1367   0.465E+00    0.838E+00
RMM:  29    -0.397983227572E+02   -0.11660E+00   -0.12650E+00  1524   0.345E+00    0.726E+00
RMM:  30    -0.398905607179E+02   -0.92238E-01   -0.37862E-01  1462   0.185E+00    0.835E+00
RMM:  31    -0.397709022714E+02    0.11966E+00   -0.30274E-01  1160   0.344E+00    0.748E+00
RMM:  32    -0.398561991314E+02   -0.85297E-01   -0.55197E-01  1282   0.379E+00    0.735E+00
RMM:  33    -0.400531991021E+02   -0.19700E+00   -0.25128E-01  1370   0.231E+00    0.707E+00
RMM:  34    -0.400652992357E+02   -0.12100E-01   -0.88433E-02  1580   0.810E-01    0.727E+00
RMM:  35    -0.401692404977E+02   -0.10394E+00   -0.10247E-01  1257   0.177E+00    0.689E+00
RMM:  36    -0.402002272613E+02   -0.30987E-01   -0.63659E-02  1347   0.135E+00    0.687E+00
RMM:  37    -0.402320723227E+02   -0.31845E-01   -0.67831E-02  1166   0.174E+00    0.686E+00
RMM:  38    -0.402550418771E+02   -0.22970E-01   -0.42804E-02  1476   0.739E-01    0.702E+00
RMM:  39    -0.402535255517E+02    0.15163E-02   -0.75781E-02  1173   0.170E+00    0.716E+00
RMM:  40    -0.400012041337E+02    0.25232E+00   -0.29920E-01  1198   0.340E+00    0.773E+00
RMM:  41    -0.398198624149E+02    0.18134E+00   -0.59398E-01  1352   0.341E+00    0.761E+00
RMM:  42    -0.397400816618E+02    0.79781E-01   -0.36845E-01  1464   0.194E+00    0.698E+00
RMM:  43    -0.397567684199E+02   -0.16687E-01   -0.89449E-02  1594   0.730E-01    0.664E+00
RMM:  44    -0.397612061902E+02   -0.44378E-02   -0.46906E-02  1572   0.429E-01    0.645E+00
RMM:  45    -0.398334562424E+02   -0.72250E-01   -0.36041E-02  1173   0.739E-01    0.629E+00
RMM:  46    -0.401976467864E+02   -0.36419E+00   -0.46840E-01  1207   0.341E+00    0.539E+00
RMM:  47    -0.403966743580E+02   -0.19903E+00   -0.40886E-01  1308   0.211E+00    0.506E+00
RMM:  48    -0.406330834030E+02   -0.23641E+00   -0.44225E-01  1334   0.201E+00    0.485E+00
RMM:  49    -0.407530425126E+02   -0.11996E+00   -0.21976E-01  1336   0.180E+00    0.507E+00
RMM:  50    -0.407970852184E+02   -0.44043E-01   -0.84662E-02  1446   0.821E-01    0.555E+00
RMM:  51    -0.407753650976E+02    0.21720E-01   -0.34223E-02  1304   0.680E-01    0.538E+00
RMM:  52    -0.408855882879E+02   -0.11022E+00   -0.35849E-02  1211   0.102E+00    0.530E+00
RMM:  53    -0.409166403355E+02   -0.31052E-01   -0.31471E-02  1432   0.546E-01    0.547E+00
RMM:  54    -0.408790196136E+02    0.37621E-01   -0.61932E-02  1160   0.124E+00    0.512E+00
RMM:  55    -0.408724425625E+02    0.65771E-02   -0.96364E-02  1295   0.132E+00    0.459E+00
RMM:  56    -0.408155180912E+02    0.56924E-01   -0.11516E-01  1333   0.100E+00    0.462E+00
RMM:  57    -0.408860020796E+02   -0.70484E-01   -0.17415E-01  1261   0.102E+00    0.459E+00
RMM:  58    -0.409820429249E+02   -0.96041E-01   -0.23105E-01  1300   0.147E+00    0.488E+00
RMM:  59    -0.410512079335E+02   -0.69165E-01   -0.33924E-01  1292   0.222E+00    0.534E+00
RMM:  60    -0.410905016475E+02   -0.39294E-01   -0.20447E-01  1470   0.119E+00
   1 F= -.41090502E+02 E0= -.41089883E+02  d E =-.410905E+02  mag=     8.4058
 curvature:   0.00 expect dE= 0.000E+00 dE for cont linesearch  0.000E+00
 trial: gam= 0.00000 g(F)=  0.153E+00 g(S)=  0.000E+00 ort = 0.000E+00 (trialstep = 0.100E+01)
 search vector abs. value=  0.153E+00
 bond charge predicted
       N       E                     dE             d eps       ncg     rms          rms(c)
DAV:   1    -0.410724282713E+02   -0.21220E-01   -0.30500E+01  1172   0.301E+01    0.601E+00
RMM:   2    -0.447529076686E+02   -0.36805E+01   -0.98122E+00  1187   0.235E+01    0.246E+01
RMM:   3    -0.411938779183E+02    0.35590E+01   -0.35249E+00  1126   0.186E+01    0.613E+00
RMM:   4    -0.417265265762E+02   -0.53265E+00   -0.22662E+00  1256   0.901E+00    0.816E+00
RMM:   5    -0.415060045811E+02    0.22052E+00   -0.49577E-01  1181   0.497E+00    0.480E+00
RMM:   6    -0.415843107619E+02   -0.78306E-01   -0.33975E-01  1321   0.314E+00    0.752E+00
RMM:   7    -0.414295960521E+02    0.15471E+00   -0.12387E-01  1165   0.269E+00    0.598E+00
RMM:   8    -0.413799866853E+02    0.49609E-01   -0.56091E-02  1201   0.159E+00    0.544E+00
RMM:   9    -0.411806068773E+02    0.19938E+00   -0.20465E-01  1164   0.295E+00    0.455E+00
RMM:  10    -0.411520292831E+02    0.28578E-01   -0.18258E-01  1256   0.234E+00    0.423E+00
RMM:  11    -0.411014743879E+02    0.50555E-01   -0.17804E-01  1161   0.319E+00    0.441E+00
RMM:  12    -0.409360443845E+02    0.16543E+00   -0.19597E-01  1246   0.244E+00    0.435E+00
RMM:  13    -0.411359447530E+02   -0.19990E+00   -0.80533E-02  1146   0.194E+00    0.337E+00
RMM:  14    -0.413943561960E+02   -0.25841E+00   -0.43242E-01  1175   0.383E+00    0.250E+00
RMM:  15    -0.415933847520E+02   -0.19903E+00   -0.38783E-01  1382   0.254E+00    0.437E+00
RMM:  16    -0.416613242671E+02   -0.67940E-01   -0.13981E-01  1514   0.127E+00    0.491E+00
RMM:  17    -0.415580836131E+02    0.10324E+00   -0.36605E-02  1136   0.151E+00    0.472E+00
RMM:  18    -0.415406574740E+02    0.17426E-01   -0.11806E-02  1434   0.400E-01    0.459E+00
RMM:  19    -0.414742324573E+02    0.66425E-01   -0.24628E-02  1207   0.936E-01    0.421E+00
RMM:  20    -0.413794670134E+02    0.94765E-01   -0.13404E-01  1210   0.214E+00    0.348E+00
RMM:  21    -0.413585664699E+02    0.20901E-01   -0.21640E-01  1395   0.222E+00    0.417E+00
RMM:  22    -0.413684935782E+02   -0.99271E-02   -0.64236E-02  1561   0.658E-01    0.408E+00
RMM:  23    -0.413070520525E+02    0.61442E-01   -0.30116E-02  1232   0.980E-01    0.483E+00
RMM:  24    -0.413345618008E+02   -0.27510E-01   -0.84855E-03  1495   0.289E-01    0.458E+00
RMM:  25    -0.414524077721E+02   -0.11785E+00   -0.49013E-02  1137   0.156E+00    0.321E+00
RMM:  26    -0.417567023644E+02   -0.30429E+00   -0.73598E-01  1207   0.502E+00    0.430E+00
RMM:  27    -0.419401259135E+02   -0.18342E+00   -0.39908E-01  1514   0.221E+00    0.462E+00
RMM:  28    -0.420624111962E+02   -0.12229E+00   -0.11991E-01  1476   0.123E+00    0.502E+00
RMM:  29    -0.420532017387E+02    0.92095E-02   -0.13816E-02  1389   0.461E-01    0.504E+00
RMM:  30    -0.420540906852E+02   -0.88895E-03   -0.36102E-03  1510   0.140E-01    0.509E+00
RMM:  31    -0.420319453449E+02    0.22145E-01   -0.19036E-03  1165   0.315E-01    0.502E+00
RMM:  32    -0.420511989460E+02   -0.19254E-01   -0.28003E-03  1229   0.264E-01    0.500E+00
RMM:  33    -0.420721540683E+02   -0.20955E-01   -0.12340E-02  1220   0.603E-01    0.501E+00
RMM:  34    -0.420520526512E+02    0.20101E-01   -0.10951E-02  1419   0.465E-01    0.500E+00
RMM:  35    -0.420490380929E+02    0.30146E-02   -0.27534E-03  1535   0.152E-01    0.497E+00
RMM:  36    -0.420509788021E+02   -0.19407E-02   -0.27072E-04  1085   0.584E-02    0.496E+00
RMM:  37    -0.420510588438E+02   -0.80042E-04   -0.31723E-05   753   0.273E-02    0.496E+00
RMM:  38    -0.420517752419E+02   -0.71640E-03   -0.44999E-05   875   0.450E-02    0.497E+00
RMM:  39    -0.420658364935E+02   -0.14061E-01   -0.15829E-02  1180   0.714E-01    0.505E+00
RMM:  40    -0.421189257617E+02   -0.53089E-01   -0.49009E-02  1256   0.108E+00    0.515E+00
RMM:  41    -0.421098323182E+02    0.90934E-02   -0.23353E-02  1405   0.650E-01    0.504E+00
RMM:  42    -0.420924222075E+02    0.17410E-01   -0.10970E-02  1440   0.447E-01    0.498E+00
RMM:  43    -0.420935673655E+02   -0.11452E-02   -0.30805E-03  1545   0.145E-01    0.492E+00
RMM:  44    -0.420938536609E+02   -0.28630E-03   -0.25599E-04   984   0.486E-02    0.491E+00
RMM:  45    -0.421004380899E+02   -0.65844E-02   -0.23852E-04  1123   0.107E-01    0.489E+00
RMM:  46    -0.421007864344E+02   -0.34834E-03   -0.90349E-05   832   0.324E-02    0.490E+00
RMM:  47    -0.420808305254E+02    0.19956E-01   -0.19031E-03  1136   0.267E-01    0.495E+00
RMM:  48    -0.421185890917E+02   -0.37759E-01   -0.10037E-02  1201   0.630E-01    0.489E+00
RMM:  49    -0.421314750156E+02   -0.12886E-01   -0.30534E-03  1272   0.297E-01    0.497E+00
RMM:  50    -0.421304276066E+02    0.10474E-02   -0.79855E-03  1190   0.506E-01    0.512E+00
RMM:  51    -0.421292244958E+02    0.12031E-02   -0.11627E-03  1452   0.149E-01    0.510E+00
RMM:  52    -0.421189875040E+02    0.10237E-01   -0.53110E-03  1203   0.430E-01    0.506E+00
RMM:  53    -0.420680494175E+02    0.50938E-01   -0.37109E-02  1236   0.107E+00    0.511E+00
RMM:  54    -0.419752901023E+02    0.92759E-01   -0.21311E-01  1314   0.236E+00    0.496E+00
RMM:  55    -0.419975607152E+02   -0.22271E-01   -0.44615E-02  1546   0.571E-01    0.474E+00
RMM:  56    -0.419959334037E+02    0.16273E-02   -0.64310E-03  1504   0.236E-01    0.465E+00
RMM:  57    -0.420821985082E+02   -0.86265E-01   -0.57700E-02  1143   0.165E+00    0.427E+00
RMM:  58    -0.419977802709E+02    0.84418E-01   -0.16930E-02  1123   0.115E+00    0.484E+00
RMM:  59    -0.420335935690E+02   -0.35813E-01   -0.32325E-03  1159   0.449E-01    0.479E+00
RMM:  60    -0.420400827270E+02   -0.64892E-02   -0.19398E-03  1441   0.145E-01
   2 F= -.42040083E+02 E0= -.42040634E+02  d E =-.949581E+00  mag=     8.5707
 trial-energy change:   -0.949581  1 .order   -0.127387   -0.153025   -0.101749
 step:   2.9843(harm=  2.9843)  dis= 0.05912  next Energy=   -41.318842 (dE=-0.228E+00)
 bond charge predicted
       N       E                     dE             d eps       ncg     rms          rms(c)
DAV:   1    -0.402882042541E+02    0.17454E+01   -0.12736E+02  1116   0.635E+01    0.104E+01
RMM:   2    -0.459734373350E+02   -0.56852E+01   -0.18811E+01  1142   0.334E+01    0.299E+01
RMM:   3    -0.420800801273E+02    0.38934E+01   -0.10137E+01  1124   0.306E+01    0.855E+00
RMM:   4    -0.421996429439E+02   -0.11956E+00   -0.15346E+00  1136   0.112E+01    0.705E+00
RMM:   5    -0.421295858177E+02    0.70057E-01   -0.77997E-01  1142   0.730E+00    0.552E+00
RMM:   6    -0.421180131565E+02    0.11573E-01   -0.17085E-01  1193   0.294E+00    0.364E+00
RMM:   7    -0.421311362847E+02   -0.13123E-01   -0.99275E-02  1308   0.160E+00    0.376E+00
RMM:   8    -0.421525901821E+02   -0.21454E-01   -0.10305E-01  1203   0.218E+00    0.357E+00
RMM:   9    -0.421650646681E+02   -0.12474E-01   -0.34683E-01  1178   0.419E+00    0.360E+00
RMM:  10    -0.421983660077E+02   -0.33301E-01   -0.24727E-01  1185   0.370E+00    0.271E+00
RMM:  11    -0.422447131277E+02   -0.46347E-01   -0.18339E-01  1139   0.375E+00    0.275E+00
RMM:  12    -0.422982029142E+02   -0.53490E-01   -0.13420E-01  1137   0.235E+00    0.183E+00
RMM:  13    -0.424318152538E+02   -0.13361E+00   -0.35012E-02  1212   0.133E+00    0.947E-01
RMM:  14    -0.424892093018E+02   -0.57394E-01   -0.40588E-02  1265   0.930E-01    0.101E+00
RMM:  15    -0.425496985415E+02   -0.60489E-01   -0.32840E-02  1175   0.966E-01    0.610E-01
RMM:  16    -0.426201913383E+02   -0.70493E-01   -0.24793E-02  1211   0.786E-01    0.335E-01
RMM:  17    -0.426330765870E+02   -0.12885E-01   -0.13785E-02  1371   0.527E-01    0.275E-01
RMM:  18    -0.426320742149E+02    0.10024E-02   -0.30765E-03  1278   0.269E-01    0.106E-01
RMM:  19    -0.426323017598E+02   -0.22754E-03   -0.13702E-03  1361   0.156E-01    0.536E-02
RMM:  20    -0.426333080374E+02   -0.10063E-02   -0.48677E-04  1253   0.702E-02    0.485E-02
RMM:  21    -0.426357452553E+02   -0.24372E-02   -0.35865E-04  1095   0.716E-02    0.299E-02
RMM:  22    -0.426385287636E+02   -0.27835E-02   -0.28399E-04   966   0.490E-02    0.192E-02
RMM:  23    -0.426403013433E+02   -0.17726E-02   -0.20074E-04   927   0.424E-02    0.134E-02
RMM:  24    -0.426414296741E+02   -0.11283E-02   -0.17714E-04   886   0.404E-02    0.868E-03
RMM:  25    -0.426417277271E+02   -0.29805E-03   -0.52220E-05   791   0.281E-02    0.627E-03
RMM:  26    -0.426420199819E+02   -0.29225E-03   -0.49208E-05   777   0.225E-02    0.426E-03
RMM:  27    -0.426420593297E+02   -0.39348E-04   -0.21570E-05   722   0.201E-02    0.290E-03
RMM:  28    -0.426420643444E+02   -0.50148E-05   -0.69833E-06   670   0.146E-02
   3 F= -.42642064E+02 E0= -.42641633E+02  d E =-.155156E+01  mag=     6.0351
 curvature:  -1.49 expect dE=-0.187E+00 dE for cont linesearch -0.196E-04
 trial: gam= 0.82912 g(F)=  0.125E+00 g(S)=  0.000E+00 ort =-0.142E-02 (trialstep = 0.936E+00)
 search vector abs. value=  0.228E+00
 bond charge predicted
       N       E                     dE             d eps       ncg     rms          rms(c)
DAV:   1    -0.424964576445E+02    0.14560E+00   -0.37497E+01  1116   0.331E+01    0.444E+00
RMM:   2    -0.431479986266E+02   -0.65154E+00   -0.19509E+00  1147   0.118E+01    0.102E+01
RMM:   3    -0.428459308401E+02    0.30207E+00   -0.11278E+00  1124   0.914E+00    0.538E+00
RMM:   4    -0.428459930248E+02   -0.62185E-04   -0.37337E-01  1141   0.510E+00    0.508E+00
RMM:   5    -0.427178481307E+02    0.12814E+00   -0.10443E-01  1122   0.343E+00    0.875E-01
RMM:   6    -0.427254988174E+02   -0.76507E-02   -0.45901E-02  1197   0.142E+00    0.954E-01
RMM:   7    -0.427247977192E+02    0.70110E-03   -0.14177E-02  1153   0.975E-01    0.419E-01
RMM:   8    -0.427290134742E+02   -0.42158E-02   -0.10324E-02  1214   0.616E-01    0.704E-01
RMM:   9    -0.427289890586E+02    0.24416E-04   -0.48220E-03  1187   0.502E-01    0.297E-01
RMM:  10    -0.427332461182E+02   -0.42571E-02   -0.55595E-03  1205   0.435E-01    0.360E-01
RMM:  11    -0.427340018672E+02   -0.75575E-03   -0.17675E-03  1180   0.337E-01    0.149E-01
RMM:  12    -0.427374362601E+02   -0.34344E-02   -0.65701E-04  1238   0.128E-01    0.528E-02
RMM:  13    -0.427410954975E+02   -0.36592E-02   -0.25467E-04  1150   0.716E-02    0.657E-02
RMM:  14    -0.427452237784E+02   -0.41283E-02   -0.21004E-04   993   0.547E-02    0.453E-02
RMM:  15    -0.427479938277E+02   -0.27700E-02   -0.17261E-04   913   0.478E-02    0.315E-02
RMM:  16    -0.427495529362E+02   -0.15591E-02   -0.13079E-04   869   0.406E-02    0.214E-02
RMM:  17    -0.427502994202E+02   -0.74648E-03   -0.90738E-05   838   0.377E-02    0.126E-02
RMM:  18    -0.427506252199E+02   -0.32580E-03   -0.72100E-05   821   0.306E-02    0.783E-03
RMM:  19    -0.427506297192E+02   -0.44992E-05   -0.28484E-05   753   0.251E-02
   4 F= -.42750630E+02 E0= -.42750033E+02  d E =-.108565E+00  mag=     6.0989
 ZBRENT: can't locate minimum, use default step
 trial-energy change:   -0.108565  1 .order   -0.108405   -0.116363   -0.100447
 step:   3.7452(harm=  6.8454)  dis= 0.09615  next Energy=   -43.067436 (dE=-0.425E+00)
 bond charge predicted
       N       E                     dE             d eps       ncg     rms          rms(c)
DAV:   1    -0.372201467308E+02    0.55305E+01   -0.40646E+02  1123   0.131E+02    0.147E+01
RMM:   2    -0.550079967609E+02   -0.17788E+02   -0.69545E+01  1330   0.591E+01    0.399E+01
RMM:   3    -0.462165091578E+02    0.87915E+01   -0.11411E+01  1124   0.320E+01    0.321E+01
RMM:   4    -0.431596471797E+02    0.30569E+01   -0.74379E+00  1133   0.237E+01    0.122E+01
RMM:   5    -0.430833776883E+02    0.76269E-01   -0.17027E+00  1145   0.108E+01    0.830E+00
RMM:   6    -0.427466331418E+02    0.33674E+00   -0.56912E-01  1129   0.723E+00    0.544E+00
RMM:   7    -0.427141572984E+02    0.32476E-01   -0.30769E-01  1296   0.327E+00    0.290E+00
RMM:   8    -0.427929816064E+02   -0.78824E-01   -0.17063E-01  1139   0.338E+00    0.364E+00
RMM:   9    -0.428325884066E+02   -0.39607E-01   -0.15289E-01  1148   0.278E+00    0.351E+00
RMM:  10    -0.428292076394E+02    0.33808E-02   -0.63021E-02  1173   0.169E+00    0.183E+00
RMM:  11    -0.428652362828E+02   -0.36029E-01   -0.81801E-02  1183   0.201E+00    0.223E+00
RMM:  12    -0.428771311844E+02   -0.11895E-01   -0.34421E-02  1151   0.134E+00    0.114E+00
RMM:  13    -0.428979223214E+02   -0.20791E-01   -0.25398E-02  1355   0.577E-01    0.823E-01
RMM:  14    -0.429129821717E+02   -0.15060E-01   -0.10424E-02  1271   0.493E-01    0.687E-01
RMM:  15    -0.429229337585E+02   -0.99516E-02   -0.79978E-03  1268   0.404E-01    0.333E-01
RMM:  16    -0.429365519841E+02   -0.13618E-01   -0.51831E-03  1319   0.273E-01    0.193E-01
RMM:  17    -0.429474603866E+02   -0.10908E-01   -0.23957E-03  1242   0.194E-01    0.181E-01
RMM:  18    -0.429599423103E+02   -0.12482E-01   -0.14311E-03  1202   0.141E-01    0.126E-01
RMM:  19    -0.429717043902E+02   -0.11762E-01   -0.12549E-03  1174   0.129E-01    0.658E-02
RMM:  20    -0.429748588945E+02   -0.31545E-02   -0.57905E-04  1248   0.859E-02    0.366E-02
RMM:  21    -0.429751812923E+02   -0.32240E-03   -0.26610E-04  1072   0.514E-02    0.173E-02
RMM:  22    -0.429748898230E+02    0.29147E-03   -0.69138E-05   857   0.360E-02    0.168E-02
RMM:  23    -0.429749504359E+02   -0.60613E-04   -0.19087E-05   724   0.289E-02    0.906E-03
RMM:  24    -0.429750428511E+02   -0.92415E-04   -0.11276E-05   699   0.204E-02    0.694E-03
RMM:  25    -0.429751619742E+02   -0.11912E-03   -0.11166E-05   696   0.207E-02    0.617E-03
RMM:  26    -0.429752704041E+02   -0.10843E-03   -0.93575E-06   691   0.153E-02    0.522E-03
RMM:  27    -0.429753432325E+02   -0.72828E-04   -0.62153E-06   662   0.143E-02    0.414E-03
RMM:  28    -0.429754349410E+02   -0.91708E-04   -0.99118E-06   678   0.131E-02    0.227E-03
RMM:  29    -0.429754686723E+02   -0.33731E-04   -0.52736E-06   639   0.121E-02    0.260E-03
RMM:  30    -0.429754868632E+02   -0.18191E-04   -0.44720E-06   608   0.101E-02    0.132E-03
RMM:  31    -0.429754897925E+02   -0.29293E-05   -0.20264E-06   503   0.862E-03
   5 F= -.42975490E+02 E0= -.42975108E+02  d E =-.333425E+00  mag=     6.2916
 curvature:  -4.56 expect dE=-0.371E+00 dE for cont linesearch -0.596E-01
 ZBRENT: increasing intervall
 opt :   9.3630  next Energy=   -42.986972 (dE=-0.345E+00)
 bond charge predicted
       N       E                     dE             d eps       ncg     rms          rms(c)
DAV:   1    -0.463892144830E+01    0.38337E+02   -0.20592E+03  1172   0.381E+02    0.331E+01
RMM:   2    -0.114174029647E+03   -0.10954E+03   -0.38001E+02  1687   0.184E+02    0.889E+01
RMM:   3    -0.749173440474E+02    0.39257E+02   -0.12593E+02  1254   0.101E+02    0.599E+01
RMM:   4    -0.606188761193E+02    0.14298E+02   -0.80006E+01  1186   0.784E+01    0.542E+01
RMM:   5    -0.493643884107E+02    0.11254E+02   -0.32693E+01  1212   0.395E+01    0.423E+01
RMM:   6    -0.373062505036E+02    0.12058E+02   -0.10656E+01  1138   0.292E+01    0.181E+01
RMM:   7    -0.411714074194E+02   -0.38652E+01   -0.94972E+00  1165   0.227E+01    0.236E+01
RMM:   8    -0.404539870701E+02    0.71742E+00   -0.23346E+00  1147   0.134E+01    0.118E+01
RMM:   9    -0.418129290330E+02   -0.13589E+01   -0.23351E+00  1193   0.101E+01    0.133E+01
RMM:  10    -0.420042499738E+02   -0.19132E+00   -0.11262E+00  1162   0.780E+00    0.101E+01
RMM:  11    -0.422245413996E+02   -0.22029E+00   -0.89284E-01  1351   0.492E+00    0.994E+00
RMM:  12    -0.420787745458E+02    0.14577E+00   -0.43525E-01  1174   0.491E+00    0.738E+00
RMM:  13    -0.420179184356E+02    0.60856E-01   -0.54289E-01  1158   0.343E+00    0.489E+00
RMM:  14    -0.422757164892E+02   -0.25780E+00   -0.33743E-01  1233   0.250E+00    0.363E+00
RMM:  15    -0.425675861113E+02   -0.29187E+00   -0.35542E-01  1183   0.234E+00    0.226E+00
RMM:  16    -0.426749417202E+02   -0.10736E+00   -0.15071E-01  1312   0.134E+00    0.177E+00
RMM:  17    -0.427768738473E+02   -0.10193E+00   -0.80881E-02  1226   0.103E+00    0.119E+00
RMM:  18    -0.428338552537E+02   -0.56981E-01   -0.36353E-02  1284   0.621E-01    0.940E-01
RMM:  19    -0.428600871939E+02   -0.26232E-01   -0.12257E-02  1363   0.353E-01    0.829E-01
RMM:  20    -0.428976594587E+02   -0.37572E-01   -0.15183E-02  1133   0.476E-01    0.694E-01
RMM:  21    -0.429423014349E+02   -0.44642E-01   -0.33387E-02  1149   0.625E-01    0.461E-01
RMM:  22    -0.429639790435E+02   -0.21678E-01   -0.11011E-02  1210   0.330E-01    0.402E-01
RMM:  23    -0.429876894233E+02   -0.23710E-01   -0.64109E-03  1164   0.286E-01    0.281E-01
RMM:  24    -0.430058074049E+02   -0.18118E-01   -0.34012E-03  1319   0.193E-01    0.213E-01
RMM:  25    -0.430204934276E+02   -0.14686E-01   -0.11681E-03  1203   0.140E-01    0.186E-01
RMM:  26    -0.430235316183E+02   -0.30382E-02   -0.74974E-04  1265   0.123E-01    0.133E-01
RMM:  27    -0.430233879327E+02    0.14369E-03   -0.43437E-04  1185   0.104E-01    0.631E-02
RMM:  28    -0.430230762324E+02    0.31170E-03   -0.14034E-04  1043   0.452E-02    0.493E-02
RMM:  29    -0.430233867452E+02   -0.31051E-03   -0.71607E-05   922   0.466E-02    0.263E-02
RMM:  30    -0.430236128262E+02   -0.22608E-03   -0.35832E-05   772   0.318E-02    0.211E-02
RMM:  31    -0.430238723286E+02   -0.25950E-03   -0.22202E-05   716   0.311E-02    0.154E-02
RMM:  32    -0.430239260190E+02   -0.53690E-04   -0.11673E-05   697   0.217E-02    0.100E-02
RMM:  33    -0.430240490577E+02   -0.12304E-03   -0.95619E-06   684   0.190E-02    0.939E-03
RMM:  34    -0.430240994205E+02   -0.50363E-04   -0.48952E-06   672   0.155E-02    0.840E-03
RMM:  35    -0.430241433012E+02   -0.43881E-04   -0.35623E-06   653   0.122E-02    0.743E-03
RMM:  36    -0.430241639980E+02   -0.20697E-04   -0.26208E-06   636   0.114E-02    0.361E-03
RMM:  37    -0.430241775086E+02   -0.13511E-04   -0.17974E-06   581   0.819E-03    0.288E-03
RMM:  38    -0.430241859835E+02   -0.84749E-05   -0.13499E-06   542   0.812E-03
   6 F= -.43024186E+02 E0= -.43025345E+02  d E =-.382122E+00  mag=     6.4354
 curvature:  -0.88 expect dE=-0.109E+00 dE for cont linesearch -0.155E-01
 ZBRENT: bracketing found
 ZBRENT: interpolating
 opt :   6.3434  next Energy=   -43.046502 (dE=-0.404E+00)
 bond charge predicted
       N       E                     dE             d eps       ncg     rms          rms(c)
DAV:   1    -0.374782019859E+02    0.55460E+01   -0.46330E+02  1123   0.145E+02    0.143E+01
RMM:   2    -0.503934451958E+02   -0.12915E+02   -0.44330E+01  1181   0.469E+01    0.373E+01
RMM:   3    -0.479025069777E+02    0.24909E+01   -0.10797E+01  1123   0.303E+01    0.364E+01
RMM:   4    -0.430874402584E+02    0.48151E+01   -0.42908E+00  1130   0.187E+01    0.114E+01
RMM:   5    -0.433173897854E+02   -0.22995E+00   -0.23526E+00  1128   0.145E+01    0.122E+01
RMM:   6    -0.429035439068E+02    0.41385E+00   -0.58732E-01  1124   0.789E+00    0.355E+00
RMM:   7    -0.429370012435E+02   -0.33457E-01   -0.24269E-01  1244   0.315E+00    0.402E+00
RMM:   8    -0.429218259281E+02    0.15175E-01   -0.17966E-01  1147   0.360E+00    0.243E+00
RMM:   9    -0.429290961110E+02   -0.72702E-02   -0.14462E-01  1167   0.293E+00    0.287E+00
RMM:  10    -0.429070737191E+02    0.22022E-01   -0.52714E-02  1183   0.169E+00    0.150E+00
RMM:  11    -0.429224193793E+02   -0.15346E-01   -0.60269E-02  1194   0.175E+00    0.167E+00
RMM:  12    -0.429208782661E+02    0.15411E-02   -0.35683E-02  1146   0.161E+00    0.428E-01
RMM:  13    -0.429459241477E+02   -0.25046E-01   -0.19685E-02  1339   0.523E-01    0.478E-01
RMM:  14    -0.429702448898E+02   -0.24321E-01   -0.52957E-03  1147   0.427E-01    0.158E-01
RMM:  15    -0.429950277343E+02   -0.24783E-01   -0.40744E-03  1298   0.210E-01    0.156E-01
RMM:  16    -0.430195766224E+02   -0.24549E-01   -0.33805E-03  1139   0.194E-01    0.128E-01
RMM:  17    -0.430407383073E+02   -0.21162E-01   -0.33673E-03  1129   0.165E-01    0.817E-02
RMM:  18    -0.430588820480E+02   -0.18144E-01   -0.31675E-03  1115   0.151E-01    0.677E-02
RMM:  19    -0.430698931642E+02   -0.11011E-01   -0.24965E-03  1150   0.121E-01    0.484E-02
RMM:  20    -0.430741163509E+02   -0.42232E-02   -0.15694E-03  1175   0.102E-01    0.288E-02
RMM:  21    -0.430750086331E+02   -0.89228E-03   -0.84051E-04  1137   0.720E-02    0.296E-02
RMM:  22    -0.430750712463E+02   -0.62613E-04   -0.28948E-04   977   0.439E-02    0.205E-02
RMM:  23    -0.430750398356E+02    0.31411E-04   -0.99778E-05   879   0.314E-02    0.194E-02
RMM:  24    -0.430752612636E+02   -0.22143E-03   -0.37992E-05   763   0.268E-02    0.151E-02
RMM:  25    -0.430755709364E+02   -0.30967E-03   -0.32055E-05   744   0.227E-02    0.119E-02
RMM:  26    -0.430757227804E+02   -0.15184E-03   -0.19335E-05   712   0.203E-02    0.946E-03
RMM:  27    -0.430757863645E+02   -0.63584E-04   -0.98615E-06   677   0.160E-02    0.701E-03
RMM:  28    -0.430758112849E+02   -0.24920E-04   -0.78650E-06   676   0.147E-02    0.446E-03
RMM:  29    -0.430758117777E+02   -0.49271E-06   -0.49193E-06   650   0.129E-02
   7 F= -.43075812E+02 E0= -.43074498E+02  d E =-.433747E+00  mag=     6.4453
 curvature:  -4.02 expect dE=-0.307E+00 dE for cont linesearch -0.105E-01
 ZBRENT: interpolating
 opt :   7.8634  next Energy=   -43.099578 (dE=-0.458E+00)
 bond charge predicted
       N       E                     dE             d eps       ncg     rms          rms(c)
DAV:   1    -0.423780193328E+02    0.69779E+00   -0.10231E+02  1124   0.572E+01    0.721E+00
RMM:   2    -0.438166106170E+02   -0.14386E+01   -0.52968E+00  1137   0.184E+01    0.148E+01
RMM:   3    -0.436403438690E+02    0.17627E+00   -0.26604E+00  1125   0.137E+01    0.117E+01
RMM:   4    -0.438742388670E+02   -0.23389E+00   -0.17161E+00  1185   0.916E+00    0.131E+01
RMM:   5    -0.430105988725E+02    0.86364E+00   -0.63876E-01  1121   0.781E+00    0.272E+00
RMM:   6    -0.430172415844E+02   -0.66427E-02   -0.30518E-01  1239   0.319E+00    0.263E+00
RMM:   7    -0.429909657818E+02    0.26276E-01   -0.43677E-02  1131   0.194E+00    0.850E-01
RMM:   8    -0.430059054376E+02   -0.14940E-01   -0.40800E-02  1218   0.134E+00    0.136E+00
RMM:   9    -0.430113163809E+02   -0.54109E-02   -0.18367E-02  1140   0.107E+00    0.758E-01
RMM:  10    -0.430246176109E+02   -0.13301E-01   -0.26394E-02  1180   0.100E+00    0.874E-01
RMM:  11    -0.430282221024E+02   -0.36045E-02   -0.12536E-02  1137   0.914E-01    0.381E-01
RMM:  12    -0.430397502696E+02   -0.11528E-01   -0.85265E-03  1248   0.391E-01    0.310E-01
RMM:  13    -0.430470423599E+02   -0.72921E-02   -0.28255E-03  1203   0.281E-01    0.134E-01
RMM:  14    -0.430558505701E+02   -0.88082E-02   -0.13648E-03  1250   0.137E-01    0.772E-02
RMM:  15    -0.430647567726E+02   -0.89062E-02   -0.10374E-03  1171   0.102E-01    0.630E-02
RMM:  16    -0.430740090346E+02   -0.92523E-02   -0.84552E-04  1118   0.817E-02    0.400E-02
RMM:  17    -0.430796881920E+02   -0.56792E-02   -0.62873E-04  1054   0.601E-02    0.308E-02
RMM:  18    -0.430835933977E+02   -0.39052E-02   -0.59793E-04  1048   0.619E-02    0.193E-02
RMM:  19    -0.430845978929E+02   -0.10045E-02   -0.27230E-04   903   0.432E-02    0.112E-02
RMM:  20    -0.430850343810E+02   -0.43649E-03   -0.15545E-04   852   0.313E-02    0.578E-03
RMM:  21    -0.430850703698E+02   -0.35989E-04   -0.51821E-05   746   0.256E-02    0.642E-03
RMM:  22    -0.430850590564E+02    0.11313E-04   -0.19738E-05   706   0.186E-02    0.536E-03
RMM:  23    -0.430851070690E+02   -0.48013E-04   -0.93249E-06   667   0.165E-02    0.408E-03
RMM:  24    -0.430851425733E+02   -0.35504E-04   -0.71605E-06   645   0.130E-02    0.343E-03
RMM:  25    -0.430851949698E+02   -0.52397E-04   -0.87218E-06   653   0.132E-02    0.262E-03
RMM:  26    -0.430852028156E+02   -0.78458E-05   -0.34510E-06   579   0.109E-02
   8 F= -.43085203E+02 E0= -.43084933E+02  d E =-.443138E+00  mag=     6.4321
 curvature:  -9.06 expect dE=-0.750E+00 dE for cont linesearch -0.984E-02
 trial: gam= 0.40207 g(F)=  0.827E-01 g(S)=  0.000E+00 ort =-0.157E-01 (trialstep = 0.232E+01)
 search vector abs. value=  0.107E+00
 bond charge predicted
       N       E                     dE             d eps       ncg     rms          rms(c)
DAV:   1    -0.424646736356E+02    0.62052E+00   -0.11393E+02  1116   0.602E+01    0.702E+00
RMM:   2    -0.432558347284E+02   -0.79116E+00   -0.28421E+00  1129   0.145E+01    0.719E+00
RMM:   3    -0.450880461865E+02   -0.18322E+01   -0.22388E+00  1149   0.122E+01    0.215E+01
RMM:   4    -0.433706107791E+02    0.17174E+01   -0.78038E-01  1141   0.805E+00    0.652E+00
RMM:   5    -0.432118750648E+02    0.15874E+00   -0.34596E-01  1128   0.542E+00    0.155E+00
RMM:   6    -0.432343416654E+02   -0.22467E-01   -0.17463E-01  1314   0.220E+00    0.206E+00
RMM:   7    -0.432167926606E+02    0.17549E-01   -0.51957E-02  1156   0.193E+00    0.820E-01
RMM:   8    -0.432198273597E+02   -0.30347E-02   -0.45085E-02  1250   0.109E+00    0.103E+00
RMM:   9    -0.432181883211E+02    0.16390E-02   -0.19357E-02  1135   0.122E+00    0.936E-01
RMM:  10    -0.432152223000E+02    0.29660E-02   -0.89614E-03  1218   0.663E-01    0.596E-01
RMM:  11    -0.432141025613E+02    0.11197E-02   -0.70137E-03  1143   0.700E-01    0.351E-01
RMM:  12    -0.432139811403E+02    0.12142E-03   -0.23859E-03  1295   0.282E-01    0.207E-01
RMM:  13    -0.432142693835E+02   -0.28824E-03   -0.78248E-04  1183   0.196E-01    0.566E-02
RMM:  14    -0.432146779891E+02   -0.40861E-03   -0.22220E-04  1211   0.625E-02    0.474E-02
RMM:  15    -0.432152364379E+02   -0.55845E-03   -0.67106E-05   871   0.476E-02    0.267E-02
RMM:  16    -0.432155682313E+02   -0.33179E-03   -0.25917E-05   755   0.290E-02    0.210E-02
RMM:  17    -0.432158887354E+02   -0.32050E-03   -0.18720E-05   731   0.228E-02    0.157E-02
RMM:  18    -0.432161069738E+02   -0.21824E-03   -0.14312E-05   711   0.204E-02    0.105E-02
RMM:  19    -0.432163274750E+02   -0.22050E-03   -0.16120E-05   717   0.212E-02    0.874E-03
RMM:  20    -0.432165155237E+02   -0.18805E-03   -0.17261E-05   717   0.180E-02    0.690E-03
RMM:  21    -0.432166339195E+02   -0.11840E-03   -0.20685E-05   729   0.194E-02    0.482E-03
RMM:  22    -0.432166477185E+02   -0.13799E-04   -0.72637E-06   682   0.158E-02    0.348E-03
RMM:  23    -0.432166472399E+02    0.47854E-06   -0.45709E-06   624   0.120E-02
   9 F= -.43216647E+02 E0= -.43216879E+02  d E =-.131444E+00  mag=     6.4277
 trial-energy change:   -0.131444  1 .order   -0.133036   -0.177384   -0.088689
 step:   5.4237(harm=  4.6433)  dis= 0.17326  next Energy=   -43.272098 (dE=-0.187E+00)
 bond charge predicted
       N       E                     dE             d eps       ncg     rms          rms(c)
DAV:   1    -0.418689366044E+02    0.13477E+01   -0.21034E+02  1132   0.860E+01    0.959E+00
RMM:   2    -0.439592396977E+02   -0.20903E+01   -0.71655E+00  1140   0.224E+01    0.143E+01
RMM:   3    -0.450712873243E+02   -0.11120E+01   -0.52199E+00  1127   0.210E+01    0.224E+01
RMM:   4    -0.440822297019E+02    0.98906E+00   -0.15934E+00  1166   0.102E+01    0.125E+01
RMM:   5    -0.432898878922E+02    0.79234E+00   -0.83234E-01  1130   0.873E+00    0.331E+00
RMM:   6    -0.433334293006E+02   -0.43541E-01   -0.38460E-01  1265   0.349E+00    0.362E+00
RMM:   7    -0.432942297589E+02    0.39200E-01   -0.84038E-02  1164   0.230E+00    0.144E+00
RMM:   8    -0.433005668046E+02   -0.63370E-02   -0.67729E-02  1189   0.183E+00    0.187E+00
RMM:   9    -0.432902742667E+02    0.10293E-01   -0.28540E-02  1170   0.135E+00    0.866E-01
RMM:  10    -0.432896894867E+02    0.58478E-03   -0.24892E-02  1297   0.830E-01    0.658E-01
RMM:  11    -0.432931259551E+02   -0.34365E-02   -0.23460E-02  1215   0.956E-01    0.985E-01
RMM:  12    -0.432885422186E+02    0.45837E-02   -0.70224E-03  1132   0.767E-01    0.268E-01
RMM:  13    -0.432892299641E+02   -0.68775E-03   -0.39665E-03  1447   0.188E-01    0.127E-01
RMM:  14    -0.432896377128E+02   -0.40775E-03   -0.58402E-04  1282   0.102E-01    0.103E-01
RMM:  15    -0.432898903176E+02   -0.25260E-03   -0.35186E-04  1241   0.931E-02    0.535E-02
RMM:  16    -0.432901035237E+02   -0.21321E-03   -0.13947E-04  1067   0.583E-02    0.419E-02
RMM:  17    -0.432902897759E+02   -0.18625E-03   -0.66557E-05   846   0.359E-02    0.353E-02
RMM:  18    -0.432905614920E+02   -0.27172E-03   -0.66874E-05   845   0.346E-02    0.233E-02
RMM:  19    -0.432907766119E+02   -0.21512E-03   -0.58279E-05   804   0.311E-02    0.187E-02
RMM:  20    -0.432909122983E+02   -0.13569E-03   -0.38200E-05   760   0.279E-02    0.134E-02
RMM:  21    -0.432910066223E+02   -0.94324E-04   -0.34017E-05   745   0.268E-02    0.773E-03
RMM:  22    -0.432910413045E+02   -0.34682E-04   -0.18168E-05   716   0.213E-02    0.548E-03
RMM:  23    -0.432910555405E+02   -0.14236E-04   -0.11630E-05   692   0.200E-02    0.397E-03
RMM:  24    -0.432910586724E+02   -0.31319E-05   -0.71872E-06   666   0.161E-02
  10 F= -.43291059E+02 E0= -.43291028E+02  d E =-.205856E+00  mag=     6.3071
 curvature:  -2.88 expect dE=-0.163E+00 dE for cont linesearch -0.262E-02
 trial: gam= 0.22650 g(F)=  0.564E-01 g(S)=  0.000E+00 ort = 0.985E-02 (trialstep = 0.294E+01)
 search vector abs. value=  0.663E-01
 bond charge predicted
       N       E                     dE             d eps       ncg     rms          rms(c)
DAV:   1    -0.426446875340E+02    0.64637E+00   -0.11059E+02  1116   0.605E+01    0.759E+00
RMM:   2    -0.458660478970E+02   -0.32214E+01   -0.58890E+00  1153   0.205E+01    0.239E+01
RMM:   3    -0.442475191168E+02    0.16185E+01   -0.27339E+00  1128   0.149E+01    0.138E+01
RMM:   4    -0.436357684037E+02    0.61175E+00   -0.10974E+00  1150   0.829E+00    0.847E+00
RMM:   5    -0.433543432603E+02    0.28143E+00   -0.38399E-01  1125   0.581E+00    0.180E+00
RMM:   6    -0.433809439332E+02   -0.26601E-01   -0.15815E-01  1228   0.212E+00    0.189E+00
RMM:   7    -0.433729686320E+02    0.79753E-02   -0.34763E-02  1181   0.144E+00    0.116E+00
RMM:   8    -0.433699795445E+02    0.29891E-02   -0.23663E-02  1169   0.111E+00    0.890E-01
RMM:   9    -0.433711329261E+02   -0.11534E-02   -0.30431E-02  1170   0.122E+00    0.108E+00
RMM:  10    -0.433726694625E+02   -0.15365E-02   -0.13580E-02  1138   0.102E+00    0.392E-01
RMM:  11    -0.433806426137E+02   -0.79732E-02   -0.10715E-02  1226   0.727E-01    0.597E-01
RMM:  12    -0.433879567200E+02   -0.73141E-02   -0.48046E-03  1159   0.529E-01    0.252E-01
RMM:  13    -0.433960198651E+02   -0.80631E-02   -0.17621E-03  1228   0.208E-01    0.132E-01
RMM:  14    -0.434058491371E+02   -0.98293E-02   -0.12358E-03  1201   0.122E-01    0.885E-02
RMM:  15    -0.434146201089E+02   -0.87710E-02   -0.13202E-03  1136   0.115E-01    0.883E-02
RMM:  16    -0.434202506496E+02   -0.56305E-02   -0.11052E-03  1108   0.873E-02    0.753E-02
RMM:  17    -0.434238339885E+02   -0.35833E-02   -0.89928E-04  1119   0.818E-02    0.483E-02
RMM:  18    -0.434266703932E+02   -0.28364E-02   -0.11079E-03  1129   0.100E-01    0.372E-02
RMM:  19    -0.434272064858E+02   -0.53609E-03   -0.49434E-04  1137   0.609E-02    0.179E-02
RMM:  20    -0.434273477545E+02   -0.14127E-03   -0.20648E-04   968   0.389E-02    0.156E-02
RMM:  21    -0.434273216535E+02    0.26101E-04   -0.10673E-04   863   0.322E-02    0.115E-02
RMM:  22    -0.434273676425E+02   -0.45989E-04   -0.31890E-05   754   0.247E-02    0.675E-03
RMM:  23    -0.434274800547E+02   -0.11241E-03   -0.13947E-05   697   0.240E-02    0.672E-03
RMM:  24    -0.434275510240E+02   -0.70969E-04   -0.83871E-06   676   0.170E-02    0.520E-03
RMM:  25    -0.434276012638E+02   -0.50240E-04   -0.59576E-06   651   0.135E-02    0.388E-03
RMM:  26    -0.434276305495E+02   -0.29286E-04   -0.38527E-06   644   0.125E-02    0.278E-03
RMM:  27    -0.434276594486E+02   -0.28899E-04   -0.43264E-06   633   0.103E-02    0.195E-03
RMM:  28    -0.434276671959E+02   -0.77472E-05   -0.22848E-06   546   0.903E-03
  11 F= -.43427667E+02 E0= -.43427748E+02  d E =-.136609E+00  mag=     6.3883
 trial-energy change:   -0.136609  1 .order   -0.126585   -0.172440   -0.080730
 step:   4.2692(harm=  5.5320)  dis= 0.08093  next Energy=   -43.446795 (dE=-0.156E+00)
 bond charge predicted
       N       E                     dE             d eps       ncg     rms          rms(c)
DAV:   1    -0.433096030650E+02    0.11806E+00   -0.21766E+01  1116   0.254E+01    0.348E+00
RMM:   2    -0.439948116130E+02   -0.68521E+00   -0.11778E+00  1165   0.934E+00    0.110E+01
RMM:   3    -0.435754933625E+02    0.41932E+00   -0.59281E-01  1128   0.718E+00    0.508E+00
RMM:   4    -0.435248525940E+02    0.50641E-01   -0.28118E-01  1156   0.418E+00    0.448E+00
RMM:   5    -0.434432055438E+02    0.81647E-01   -0.10357E-01  1129   0.317E+00    0.101E+00
RMM:   6    -0.434488708021E+02   -0.56653E-02   -0.41547E-02  1198   0.149E+00    0.124E+00
RMM:   7    -0.434430392147E+02    0.58316E-02   -0.15151E-02  1156   0.947E-01    0.485E-01
RMM:   8    -0.434426292162E+02    0.41000E-03   -0.11399E-02  1223   0.649E-01    0.667E-01
RMM:   9    -0.434406647473E+02    0.19645E-02   -0.48914E-03  1144   0.605E-01    0.253E-01
RMM:  10    -0.434425998155E+02   -0.19351E-02   -0.20340E-03  1230   0.278E-01    0.131E-01
RMM:  11    -0.434451067099E+02   -0.25069E-02   -0.11552E-03  1267   0.188E-01    0.218E-01
RMM:  12    -0.434454431912E+02   -0.33648E-03   -0.39792E-04  1149   0.167E-01    0.615E-02
RMM:  13    -0.434476910936E+02   -0.22479E-02   -0.28865E-04  1171   0.594E-02    0.491E-02
RMM:  14    -0.434495241641E+02   -0.18331E-02   -0.19797E-04   983   0.533E-02    0.501E-02
RMM:  15    -0.434510517394E+02   -0.15276E-02   -0.23659E-04  1028   0.526E-02    0.252E-02
RMM:  16    -0.434519664003E+02   -0.91466E-03   -0.15612E-04   932   0.405E-02    0.225E-02
RMM:  17    -0.434524288934E+02   -0.46249E-03   -0.83082E-05   859   0.303E-02    0.235E-02
RMM:  18    -0.434529116633E+02   -0.48277E-03   -0.98701E-05   880   0.322E-02    0.195E-02
RMM:  19    -0.434531650965E+02   -0.25343E-03   -0.94285E-05   860   0.304E-02    0.828E-03
RMM:  20    -0.434532318225E+02   -0.66726E-04   -0.49228E-05   793   0.241E-02    0.630E-03
RMM:  21    -0.434532437630E+02   -0.11940E-04   -0.23418E-05   730   0.200E-02    0.512E-03
RMM:  22    -0.434532522915E+02   -0.85286E-05   -0.96152E-06   669   0.170E-02
  12 F= -.43453252E+02 E0= -.43453202E+02  d E =-.162194E+00  mag=     6.3933
 curvature:  -2.39 expect dE=-0.349E-01 dE for cont linesearch -0.561E-02
 ZBRENT: increasing intervall
 opt :   6.9234  next Energy=   -43.446718 (dE=-0.156E+00)
 bond charge predicted
       N       E                     dE             d eps       ncg     rms          rms(c)
DAV:   1    -0.428199797437E+02    0.63326E+00   -0.89058E+01  1116   0.537E+01    0.681E+00
RMM:   2    -0.448096904155E+02   -0.19897E+01   -0.41556E+00  1147   0.175E+01    0.183E+01
RMM:   3    -0.443403648255E+02    0.46933E+00   -0.22131E+00  1138   0.133E+01    0.142E+01
RMM:   4    -0.437757579775E+02    0.56461E+00   -0.13700E+00  1168   0.892E+00    0.987E+00
RMM:   5    -0.434057128254E+02    0.37005E+00   -0.44377E-01  1130   0.637E+00    0.154E+00
RMM:   6    -0.434355468465E+02   -0.29834E-01   -0.17685E-01  1234   0.220E+00    0.195E+00
RMM:   7    -0.434276332443E+02    0.79136E-02   -0.41957E-02  1177   0.148E+00    0.131E+00
RMM:   8    -0.434270843423E+02    0.54890E-03   -0.30150E-02  1198   0.119E+00    0.115E+00
RMM:   9    -0.434224924593E+02    0.45919E-02   -0.19806E-02  1166   0.116E+00    0.624E-01
RMM:  10    -0.434222134020E+02    0.27906E-03   -0.80823E-03  1217   0.545E-01    0.227E-01
RMM:  11    -0.434264017619E+02   -0.41884E-02   -0.36160E-03  1419   0.298E-01    0.240E-01
RMM:  12    -0.434294588058E+02   -0.30570E-02   -0.22147E-03  1155   0.365E-01    0.284E-01
RMM:  13    -0.434328351850E+02   -0.33764E-02   -0.65165E-04  1148   0.203E-01    0.909E-02
RMM:  14    -0.434390180316E+02   -0.61828E-02   -0.76331E-04  1195   0.102E-01    0.680E-02
RMM:  15    -0.434443954584E+02   -0.53774E-02   -0.69088E-04  1113   0.821E-02    0.604E-02
RMM:  16    -0.434489421310E+02   -0.45467E-02   -0.81709E-04  1096   0.779E-02    0.385E-02
RMM:  17    -0.434517266089E+02   -0.27845E-02   -0.70783E-04  1080   0.742E-02    0.290E-02
RMM:  18    -0.434529715929E+02   -0.12450E-02   -0.44764E-04  1068   0.597E-02    0.211E-02
RMM:  19    -0.434535949349E+02   -0.62334E-03   -0.31263E-04  1018   0.484E-02    0.112E-02
RMM:  20    -0.434536987785E+02   -0.10384E-03   -0.12283E-04   891   0.330E-02    0.695E-03
RMM:  21    -0.434537340999E+02   -0.35321E-04   -0.46151E-05   779   0.235E-02    0.601E-03
RMM:  22    -0.434537738850E+02   -0.39785E-04   -0.14934E-05   712   0.219E-02    0.545E-03
RMM:  23    -0.434538026707E+02   -0.28786E-04   -0.62432E-06   675   0.181E-02    0.340E-03
RMM:  24    -0.434538316127E+02   -0.28942E-04   -0.46110E-06   643   0.121E-02    0.353E-03
RMM:  25    -0.434538492444E+02   -0.17632E-04   -0.33396E-06   641   0.120E-02    0.261E-03
RMM:  26    -0.434538602711E+02   -0.11027E-04   -0.24230E-06   544   0.939E-03    0.143E-03
RMM:  27    -0.434538683852E+02   -0.81141E-05   -0.20520E-06   522   0.834E-03
  13 F= -.43453868E+02 E0= -.43455226E+02  d E =-.162810E+00  mag=     6.3627
 curvature:   2.78 expect dE= 0.903E-01 dE for cont linesearch  0.621E-02
 ZBRENT: bracketing found
 ZBRENT: interpolating
 opt :   5.6130  next Energy=   -43.461847 (dE=-0.171E+00)
 bond charge predicted
       N       E                     dE             d eps       ncg     rms          rms(c)
DAV:   1    -0.433192053746E+02    0.13465E+00   -0.21230E+01  1116   0.251E+01    0.331E+00
RMM:   2    -0.435432461931E+02   -0.22404E+00   -0.65633E-01  1155   0.697E+00    0.503E+00
RMM:   3    -0.437030083954E+02   -0.15976E+00   -0.86031E-01  1133   0.799E+00    0.714E+00
RMM:   4    -0.435176020742E+02    0.18541E+00   -0.19722E-01  1130   0.412E+00    0.369E+00
RMM:   5    -0.434579446987E+02    0.59657E-01   -0.81312E-02  1130   0.280E+00    0.827E-01
RMM:   6    -0.434631893589E+02   -0.52447E-02   -0.39280E-02  1237   0.121E+00    0.120E+00
RMM:   7    -0.434580596767E+02    0.51297E-02   -0.70421E-03  1149   0.708E-01    0.359E-01
RMM:   8    -0.434581344082E+02   -0.74731E-04   -0.76887E-03  1210   0.609E-01    0.511E-01
RMM:   9    -0.434564727086E+02    0.16617E-02   -0.33091E-03  1153   0.488E-01    0.206E-01
RMM:  10    -0.434570998920E+02   -0.62718E-03   -0.19987E-03  1187   0.332E-01    0.290E-01
RMM:  11    -0.434567834897E+02    0.31640E-03   -0.10560E-03  1137   0.282E-01    0.908E-02
RMM:  12    -0.434578405740E+02   -0.10571E-02   -0.36040E-04  1277   0.969E-02    0.808E-02
RMM:  13    -0.434587789369E+02   -0.93836E-03   -0.13467E-04  1054   0.751E-02    0.409E-02
RMM:  14    -0.434596093114E+02   -0.83037E-03   -0.81515E-05   887   0.408E-02    0.315E-02
RMM:  15    -0.434608075708E+02   -0.11983E-02   -0.14051E-04   918   0.389E-02    0.217E-02
RMM:  16    -0.434613711302E+02   -0.56356E-03   -0.93582E-05   849   0.319E-02    0.170E-02
RMM:  17    -0.434618259090E+02   -0.45478E-03   -0.84507E-05   847   0.320E-02    0.107E-02
RMM:  18    -0.434621605981E+02   -0.33469E-03   -0.86800E-05   839   0.299E-02    0.720E-03
RMM:  19    -0.434622482484E+02   -0.87650E-04   -0.42213E-05   790   0.249E-02    0.549E-03
RMM:  20    -0.434622679393E+02   -0.19691E-04   -0.16826E-05   724   0.199E-02    0.425E-03
RMM:  21    -0.434622704401E+02   -0.25008E-05   -0.64567E-06   664   0.176E-02
  14 F= -.43462270E+02 E0= -.43462940E+02  d E =-.171212E+00  mag=     6.3872
 curvature:  -3.57 expect dE=-0.716E-01 dE for cont linesearch -0.722E-05
 trial: gam= 0.35418 g(F)=  0.201E-01 g(S)=  0.000E+00 ort =-0.366E-03 (trialstep = 0.348E+01)
 search vector abs. value=  0.281E-01
 bond charge predicted
       N       E                     dE             d eps       ncg     rms          rms(c)
DAV:   1    -0.430569741792E+02    0.40529E+00   -0.64054E+01  1116   0.446E+01    0.561E+00
RMM:   2    -0.436106748414E+02   -0.55370E+00   -0.18572E+00  1131   0.122E+01    0.687E+00
RMM:   3    -0.443177198892E+02   -0.70705E+00   -0.15777E+00  1136   0.112E+01    0.142E+01
RMM:   4    -0.436090056468E+02    0.70871E+00   -0.54249E-01  1149   0.626E+00    0.539E+00
RMM:   5    -0.434839405505E+02    0.12507E+00   -0.25654E-01  1121   0.475E+00    0.110E+00
RMM:   6    -0.435027323454E+02   -0.18792E-01   -0.89051E-02  1325   0.158E+00    0.154E+00
RMM:   7    -0.434922834952E+02    0.10449E-01   -0.26053E-02  1178   0.119E+00    0.726E-01
RMM:   8    -0.434927487263E+02   -0.46523E-03   -0.15985E-02  1234   0.838E-01    0.688E-01
RMM:   9    -0.434914706440E+02    0.12781E-02   -0.10020E-02  1143   0.836E-01    0.493E-01
RMM:  10    -0.434914269051E+02    0.43739E-04   -0.72668E-03  1224   0.553E-01    0.522E-01
RMM:  11    -0.434909600651E+02    0.46684E-03   -0.39396E-03  1149   0.523E-01    0.321E-01
RMM:  12    -0.434912295678E+02   -0.26950E-03   -0.18748E-03  1196   0.266E-01    0.865E-02
RMM:  13    -0.434941701441E+02   -0.29406E-02   -0.11037E-03  1416   0.118E-01    0.880E-02
RMM:  14    -0.434980842585E+02   -0.39141E-02   -0.49111E-04  1174   0.103E-01    0.631E-02
RMM:  15    -0.435015735165E+02   -0.34893E-02   -0.26511E-04  1026   0.515E-02    0.380E-02
RMM:  16    -0.435044913902E+02   -0.29179E-02   -0.16646E-04   894   0.402E-02    0.309E-02
RMM:  17    -0.435067254262E+02   -0.22340E-02   -0.14293E-04   876   0.423E-02    0.173E-02
RMM:  18    -0.435078614674E+02   -0.11360E-02   -0.10595E-04   833   0.346E-02    0.131E-02
RMM:  19    -0.435083327688E+02   -0.47130E-03   -0.61451E-05   788   0.297E-02    0.679E-03
RMM:  20    -0.435085215411E+02   -0.18877E-03   -0.37285E-05   758   0.232E-02    0.378E-03
RMM:  21    -0.435085489616E+02   -0.27421E-04   -0.25040E-05   741   0.213E-02    0.396E-03
RMM:  22    -0.435085417610E+02    0.72006E-05   -0.71160E-06   677   0.159E-02
  15 F= -.43508542E+02 E0= -.43509444E+02  d E =-.462713E-01  mag=     6.3600
 trial-energy change:   -0.046271  1 .order   -0.041704   -0.069329   -0.014079
 step:   4.0383(harm=  4.3622)  dis= 0.05721  next Energy=   -43.509699 (dE=-0.474E-01)
 bond charge predicted
       N       E                     dE             d eps       ncg     rms          rms(c)
DAV:   1    -0.434992178995E+02    0.93311E-02   -0.16493E+00  1130   0.686E+00    0.871E-01
RMM:   2    -0.435083884138E+02   -0.91705E-02   -0.20927E-02  1125   0.139E+00    0.634E-01
RMM:   3    -0.435194942811E+02   -0.11106E-01   -0.21854E-02  1158   0.119E+00    0.148E+00
RMM:   4    -0.435090685184E+02    0.10426E-01   -0.75757E-03  1133   0.838E-01    0.317E-01
RMM:   5    -0.435091380235E+02   -0.69505E-04   -0.23636E-03  1168   0.361E-01    0.157E-01
RMM:   6    -0.435090089300E+02    0.12909E-03   -0.10282E-03  1280   0.179E-01    0.165E-01
RMM:   7    -0.435086043782E+02    0.40455E-03   -0.43334E-04  1139   0.177E-01    0.698E-02
RMM:   8    -0.435084265963E+02    0.17778E-03   -0.35748E-04  1159   0.143E-01    0.104E-01
RMM:   9    -0.435083723038E+02    0.54293E-04   -0.19026E-04  1113   0.112E-01    0.623E-02
RMM:  10    -0.435084815054E+02   -0.10920E-03   -0.11640E-04  1025   0.695E-02    0.560E-02
RMM:  11    -0.435085643110E+02   -0.82806E-04   -0.41411E-05   793   0.500E-02    0.190E-02
RMM:  12    -0.435087656426E+02   -0.20133E-03   -0.20517E-05   719   0.227E-02    0.137E-02
RMM:  13    -0.435090168425E+02   -0.25120E-03   -0.11946E-05   681   0.172E-02    0.114E-02
RMM:  14    -0.435093572872E+02   -0.34044E-03   -0.17640E-05   702   0.166E-02    0.976E-03
RMM:  15    -0.435095938778E+02   -0.23659E-03   -0.14415E-05   692   0.177E-02    0.724E-03
RMM:  16    -0.435097179474E+02   -0.12407E-03   -0.77232E-06   670   0.156E-02    0.505E-03
RMM:  17    -0.435098416451E+02   -0.12370E-03   -0.91223E-06   659   0.128E-02    0.400E-03
RMM:  18    -0.435099058350E+02   -0.64190E-04   -0.79717E-06   660   0.145E-02    0.251E-03
RMM:  19    -0.435099263631E+02   -0.20528E-04   -0.64995E-06   611   0.110E-02    0.147E-03
RMM:  20    -0.435099256747E+02    0.68841E-06   -0.29660E-06   536   0.986E-03
  16 F= -.43509926E+02 E0= -.43510690E+02  d E =-.476552E-01  mag=     6.3755
 curvature:  -2.67 expect dE=-0.107E-01 dE for cont linesearch -0.525E-04
 trial: gam= 0.18093 g(F)=  0.400E-02 g(S)=  0.000E+00 ort = 0.744E-03 (trialstep = 0.359E+01)
 search vector abs. value=  0.519E-02
 bond charge predicted
       N       E                     dE             d eps       ncg     rms          rms(c)
DAV:   1    -0.434413093877E+02    0.68617E-01   -0.12375E+01  1116   0.191E+01    0.250E+00
RMM:   2    -0.435599980918E+02   -0.11869E+00   -0.29713E-01  1137   0.499E+00    0.406E+00
RMM:   3    -0.436238575717E+02   -0.63859E-01   -0.34203E-01  1132   0.483E+00    0.465E+00
RMM:   4    -0.435534091525E+02    0.70448E-01   -0.10480E-01  1135   0.295E+00    0.248E+00
RMM:   5    -0.435177367732E+02    0.35672E-01   -0.30967E-02  1127   0.175E+00    0.687E-01
RMM:   6    -0.435177100485E+02    0.26725E-04   -0.17683E-02  1157   0.107E+00    0.563E-01
RMM:   7    -0.435167470161E+02    0.96303E-03   -0.45767E-03  1146   0.545E-01    0.325E-01
RMM:   8    -0.435169763147E+02   -0.22930E-03   -0.34234E-03  1188   0.432E-01    0.368E-01
RMM:   9    -0.435153691868E+02    0.16071E-02   -0.19339E-03  1145   0.357E-01    0.225E-01
RMM:  10    -0.435150760212E+02    0.29317E-03   -0.15264E-03  1155   0.311E-01    0.190E-01
RMM:  11    -0.435147572172E+02    0.31880E-03   -0.94910E-04  1195   0.200E-01    0.865E-02
RMM:  12    -0.435158315472E+02   -0.10743E-02   -0.30488E-04  1221   0.986E-02    0.557E-02
RMM:  13    -0.435170671912E+02   -0.12356E-02   -0.11660E-04   985   0.481E-02    0.343E-02
RMM:  14    -0.435190090170E+02   -0.19418E-02   -0.91862E-05   867   0.451E-02    0.342E-02
RMM:  15    -0.435202035419E+02   -0.11945E-02   -0.69542E-05   821   0.388E-02    0.214E-02
RMM:  16    -0.435210524766E+02   -0.84893E-03   -0.53497E-05   776   0.300E-02    0.133E-02
RMM:  17    -0.435215828216E+02   -0.53035E-03   -0.42288E-05   750   0.239E-02    0.957E-03
RMM:  18    -0.435219231461E+02   -0.34032E-03   -0.49409E-05   779   0.270E-02    0.702E-03
RMM:  19    -0.435219564615E+02   -0.33315E-04   -0.14476E-05   692   0.204E-02    0.356E-03
RMM:  20    -0.435219648266E+02   -0.83651E-05   -0.97895E-06   657   0.135E-02
  17 F= -.43521965E+02 E0= -.43522996E+02  d E =-.120392E-01  mag=     6.4003
 trial-energy change:   -0.012039  1 .order   -0.011995   -0.014825   -0.009165
 step:   8.8000(harm=  9.3990)  dis= 0.01725  next Energy=   -43.528755 (dE=-0.188E-01)
 bond charge predicted
       N       E                     dE             d eps       ncg     rms          rms(c)
DAV:   1    -0.433565037267E+02    0.16545E+00   -0.26195E+01  1116   0.280E+01    0.362E+00
RMM:   2    -0.436160190484E+02   -0.25952E+00   -0.70180E-01  1135   0.763E+00    0.612E+00
RMM:   3    -0.437682644621E+02   -0.15225E+00   -0.68628E-01  1134   0.669E+00    0.718E+00
RMM:   4    -0.436041569017E+02    0.16411E+00   -0.22755E-01  1131   0.425E+00    0.418E+00
RMM:   5    -0.435149503039E+02    0.89207E-01   -0.80298E-02  1127   0.278E+00    0.805E-01
RMM:   6    -0.435171977992E+02   -0.22475E-02   -0.36445E-02  1188   0.139E+00    0.791E-01
RMM:   7    -0.435154634827E+02    0.17343E-02   -0.11626E-02  1145   0.851E-01    0.491E-01
RMM:   8    -0.435161562403E+02   -0.69276E-03   -0.69428E-03  1210   0.605E-01    0.474E-01
RMM:   9    -0.435145109562E+02    0.16453E-02   -0.40371E-03  1150   0.514E-01    0.315E-01
RMM:  10    -0.435149789579E+02   -0.46800E-03   -0.40950E-03  1167   0.474E-01    0.337E-01
RMM:  11    -0.435151722025E+02   -0.19324E-03   -0.22028E-03  1150   0.354E-01    0.139E-01
RMM:  12    -0.435166439458E+02   -0.14717E-02   -0.75875E-04  1369   0.112E-01    0.935E-02
RMM:  13    -0.435192280455E+02   -0.25841E-02   -0.24864E-04  1173   0.858E-02    0.402E-02
RMM:  14    -0.435225716365E+02   -0.33436E-02   -0.20999E-04  1068   0.542E-02    0.366E-02
RMM:  15    -0.435253749258E+02   -0.28033E-02   -0.13731E-04   907   0.485E-02    0.244E-02
RMM:  16    -0.435273619555E+02   -0.19870E-02   -0.11702E-04   852   0.368E-02    0.173E-02
RMM:  17    -0.435284931279E+02   -0.11312E-02   -0.10163E-04   827   0.348E-02    0.100E-02
RMM:  18    -0.435288061934E+02   -0.31307E-03   -0.35817E-05   759   0.246E-02    0.594E-03
RMM:  19    -0.435289749099E+02   -0.16872E-03   -0.21142E-05   722   0.199E-02    0.525E-03
RMM:  20    -0.435290415305E+02   -0.66621E-04   -0.13354E-05   705   0.171E-02    0.343E-03
RMM:  21    -0.435290622625E+02   -0.20732E-04   -0.75682E-06   658   0.145E-02    0.311E-03
RMM:  22    -0.435290726248E+02   -0.10362E-04   -0.37653E-06   617   0.120E-02    0.219E-03
RMM:  23    -0.435290810247E+02   -0.83998E-05   -0.27705E-06   544   0.951E-03
  18 F= -.43529081E+02 E0= -.43530422E+02  d E =-.191553E-01  mag=     6.4020
 curvature:  -5.84 expect dE=-0.132E-01 dE for cont linesearch -0.152E-04
 trial: gam= 0.55341 g(F)=  0.227E-02 g(S)=  0.000E+00 ort = 0.116E-03 (trialstep = 0.463E+01)
 search vector abs. value=  0.398E-02
 bond charge predicted
       N       E                     dE             d eps       ncg     rms          rms(c)
DAV:   1    -0.434367776548E+02    0.92295E-01   -0.15677E+01  1116   0.213E+01    0.272E+00
RMM:   2    -0.435913176646E+02   -0.15454E+00   -0.37825E-01  1133   0.598E+00    0.418E+00
RMM:   3    -0.437208346584E+02   -0.12952E+00   -0.40555E-01  1144   0.537E+00    0.603E+00
RMM:   4    -0.435679979251E+02    0.15284E+00   -0.13427E-01  1136   0.328E+00    0.299E+00
RMM:   5    -0.435326927753E+02    0.35305E-01   -0.52736E-02  1147   0.202E+00    0.539E-01
RMM:   6    -0.435361675549E+02   -0.34748E-02   -0.20585E-02  1213   0.935E-01    0.792E-01
RMM:   7    -0.435339137841E+02    0.22538E-02   -0.76901E-03  1139   0.742E-01    0.429E-01
RMM:   8    -0.435334019927E+02    0.51179E-03   -0.58365E-03  1186   0.520E-01    0.408E-01
RMM:   9    -0.435317650721E+02    0.16369E-02   -0.32555E-03  1151   0.487E-01    0.258E-01
RMM:  10    -0.435311356350E+02    0.62944E-03   -0.17068E-03  1145   0.339E-01    0.180E-01
RMM:  11    -0.435307324183E+02    0.40322E-03   -0.88540E-04  1183   0.204E-01    0.121E-01
RMM:  12    -0.435311422838E+02   -0.40987E-03   -0.22333E-04  1225   0.817E-02    0.590E-02
RMM:  13    -0.435322099809E+02   -0.10677E-02   -0.87513E-05   964   0.507E-02    0.269E-02
RMM:  14    -0.435335553995E+02   -0.13454E-02   -0.55588E-05   806   0.360E-02    0.254E-02
RMM:  15    -0.435346485267E+02   -0.10931E-02   -0.50156E-05   791   0.296E-02    0.155E-02
RMM:  16    -0.435352544396E+02   -0.60591E-03   -0.29657E-05   747   0.236E-02    0.119E-02
RMM:  17    -0.435357464245E+02   -0.49198E-03   -0.32869E-05   759   0.254E-02    0.845E-03
RMM:  18    -0.435360796254E+02   -0.33320E-03   -0.34844E-05   738   0.249E-02    0.847E-03
RMM:  19    -0.435361524920E+02   -0.72867E-04   -0.14012E-05   701   0.192E-02    0.386E-03
RMM:  20    -0.435361788698E+02   -0.26378E-04   -0.72682E-06   655   0.139E-02    0.288E-03
RMM:  21    -0.435361853848E+02   -0.65150E-05   -0.35222E-06   617   0.128E-02
  19 F= -.43536185E+02 E0= -.43537245E+02  d E =-.710436E-02  mag=     6.4138
 trial-energy change:   -0.007104  1 .order   -0.007010   -0.010788   -0.003232
 step:   6.4248(harm=  6.6115)  dis= 0.00865  next Energy=   -43.536817 (dE=-0.774E-02)
 bond charge predicted
       N       E                     dE             d eps       ncg     rms          rms(c)
DAV:   1    -0.435226022167E+02    0.13577E-01   -0.23463E+00  1116   0.816E+00    0.103E+00
RMM:   2    -0.435433914591E+02   -0.20789E-01   -0.42715E-02  1140   0.200E+00    0.144E+00
RMM:   3    -0.435643478221E+02   -0.20956E-01   -0.61733E-02  1150   0.207E+00    0.221E+00
RMM:   4    -0.435400918932E+02    0.24256E-01   -0.19830E-02  1128   0.130E+00    0.105E+00
RMM:   5    -0.435364404297E+02    0.36515E-02   -0.64930E-03  1158   0.675E-01    0.168E-01
RMM:   6    -0.435367201809E+02   -0.27975E-03   -0.26016E-03  1194   0.353E-01    0.251E-01
RMM:   7    -0.435363437047E+02    0.37648E-03   -0.84792E-04  1158   0.246E-01    0.144E-01
RMM:   8    -0.435362362776E+02    0.10743E-03   -0.58129E-04  1172   0.179E-01    0.151E-01
RMM:   9    -0.435359913876E+02    0.24489E-03   -0.35399E-04  1145   0.159E-01    0.793E-02
RMM:  10    -0.435359296098E+02    0.61778E-04   -0.20677E-04  1142   0.117E-01    0.622E-02
RMM:  11    -0.435359089122E+02    0.20698E-04   -0.68697E-05   957   0.634E-02    0.276E-02
RMM:  12    -0.435360067619E+02   -0.97850E-04   -0.23630E-05   738   0.324E-02    0.167E-02
RMM:  13    -0.435361465832E+02   -0.13982E-03   -0.10619E-05   675   0.246E-02    0.115E-02
RMM:  14    -0.435363048821E+02   -0.15830E-03   -0.88196E-06   670   0.186E-02    0.840E-03
RMM:  15    -0.435365225459E+02   -0.21766E-03   -0.11947E-05   687   0.143E-02    0.634E-03
RMM:  16    -0.435366867598E+02   -0.16421E-03   -0.94580E-06   677   0.137E-02    0.554E-03
RMM:  17    -0.435367822261E+02   -0.95466E-04   -0.68899E-06   652   0.136E-02    0.300E-03
RMM:  18    -0.435368610860E+02   -0.78860E-04   -0.80098E-06   661   0.120E-02    0.312E-03
RMM:  19    -0.435368874484E+02   -0.26362E-04   -0.42261E-06   579   0.108E-02    0.151E-03
RMM:  20    -0.435369003625E+02   -0.12914E-04   -0.54798E-06   563   0.918E-03    0.172E-03
RMM:  21    -0.435369008344E+02   -0.47186E-06   -0.16969E-06   431   0.862E-03
  20 F= -.43536901E+02 E0= -.43537820E+02  d E =-.781981E-02  mag=     6.4172
 curvature:  -5.60 expect dE=-0.378E-02 dE for cont linesearch -0.586E-05
 trial: gam= 0.29238 g(F)=  0.676E-03 g(S)=  0.000E+00 ort = 0.645E-04 (trialstep = 0.499E+01)
 search vector abs. value=  0.105E-02
 bond charge predicted
       N       E                     dE             d eps       ncg     rms          rms(c)
DAV:   1    -0.435067256127E+02    0.30175E-01   -0.48682E+00  1116   0.118E+01    0.154E+00
RMM:   2    -0.435503398063E+02   -0.43614E-01   -0.90903E-02  1132   0.287E+00    0.210E+00
RMM:   3    -0.436063110351E+02   -0.55971E-01   -0.11761E-01  1156   0.280E+00    0.393E+00
RMM:   4    -0.435412655809E+02    0.65045E-01   -0.48419E-02  1143   0.195E+00    0.104E+00
RMM:   5    -0.435373094310E+02    0.39561E-02   -0.14186E-02  1134   0.108E+00    0.320E-01
RMM:   6    -0.435374133512E+02   -0.10392E-03   -0.48309E-03  1191   0.481E-01    0.320E-01
RMM:   7    -0.435368342954E+02    0.57906E-03   -0.14013E-03  1191   0.289E-01    0.197E-01
RMM:   8    -0.435366136113E+02    0.22068E-03   -0.97076E-04  1164   0.255E-01    0.159E-01
RMM:   9    -0.435361280312E+02    0.48558E-03   -0.52586E-04  1169   0.174E-01    0.136E-01
RMM:  10    -0.435360880410E+02    0.39990E-04   -0.38134E-04  1138   0.166E-01    0.106E-01
RMM:  11    -0.435360922430E+02   -0.42019E-05   -0.20419E-04  1170   0.103E-01    0.470E-02
RMM:  12    -0.435363312885E+02   -0.23905E-03   -0.57187E-05   854   0.521E-02    0.217E-02
RMM:  13    -0.435366749650E+02   -0.34368E-03   -0.24989E-05   738   0.291E-02    0.149E-02
RMM:  14    -0.435369974948E+02   -0.32253E-03   -0.16732E-05   705   0.243E-02    0.123E-02
RMM:  15    -0.435373476330E+02   -0.35014E-03   -0.16344E-05   704   0.206E-02    0.913E-03
RMM:  16    -0.435376591544E+02   -0.31152E-03   -0.17603E-05   705   0.176E-02    0.733E-03
RMM:  17    -0.435378801014E+02   -0.22095E-03   -0.14277E-05   697   0.182E-02    0.529E-03
RMM:  18    -0.435380298789E+02   -0.14978E-03   -0.14036E-05   698   0.159E-02    0.426E-03
RMM:  19    -0.435380973923E+02   -0.67513E-04   -0.89305E-06   672   0.142E-02    0.192E-03
RMM:  20    -0.435381205765E+02   -0.23184E-04   -0.61621E-06   638   0.122E-02    0.289E-03
RMM:  21    -0.435381244497E+02   -0.38731E-05   -0.26254E-06   525   0.961E-03
  21 F= -.43538124E+02 E0= -.43538976E+02  d E =-.122362E-02  mag=     6.4215
 trial-energy change:   -0.001224  1 .order   -0.001239   -0.003466    0.000989
 step:   3.8824(harm=  3.8824)  dis= 0.00679  next Energy=   -43.538249 (dE=-0.135E-02)
 bond charge predicted
       N       E                     dE             d eps       ncg     rms          rms(c)
DAV:   1    -0.435367401739E+02    0.13804E-02   -0.23962E-01  1144   0.261E+00    0.335E-01
RMM:   2    -0.435386490938E+02   -0.19089E-02   -0.37362E-03  1136   0.567E-01    0.449E-01
RMM:   3    -0.435411156942E+02   -0.24666E-02   -0.63335E-03  1143   0.653E-01    0.871E-01
RMM:   4    -0.435383176279E+02    0.27981E-02   -0.21425E-03  1136   0.439E-01    0.239E-01
RMM:   5    -0.435381421762E+02    0.17545E-03   -0.55569E-04  1121   0.213E-01    0.506E-02
RMM:   6    -0.435381393704E+02    0.28058E-05   -0.16643E-04  1173   0.793E-02    0.659E-02
RMM:   7    -0.435380683308E+02    0.71040E-04   -0.67700E-05   952   0.675E-02    0.451E-02
RMM:   8    -0.435380295640E+02    0.38767E-04   -0.40445E-05   780   0.588E-02    0.286E-02
RMM:   9    -0.435380241530E+02    0.54111E-05   -0.26716E-05   688   0.495E-02
  22 F= -.43538024E+02 E0= -.43538874E+02  d E =-.112332E-02  mag=     6.4209
 curvature:  -2.95 expect dE=-0.513E-03 dE for cont linesearch -0.107E-05
 trial: gam= 0.32796 g(F)=  0.174E-03 g(S)=  0.000E+00 ort =-0.195E-04 (trialstep = 0.477E+01)
 search vector abs. value=  0.275E-03
 bond charge predicted
       N       E                     dE             d eps       ncg     rms          rms(c)
DAV:   1    -0.435315592229E+02    0.64703E-02   -0.11462E+00  1116   0.574E+00    0.727E-01
RMM:   2    -0.435397276738E+02   -0.81685E-02   -0.16998E-02  1137   0.126E+00    0.742E-01
RMM:   3    -0.435537689421E+02   -0.14041E-01   -0.27367E-02  1148   0.134E+00    0.155E+00
RMM:   4    -0.435391511287E+02    0.14618E-01   -0.81233E-03  1124   0.895E-01    0.557E-01
RMM:   5    -0.435383277191E+02    0.82341E-03   -0.25352E-03  1163   0.413E-01    0.122E-01
RMM:   6    -0.435383442825E+02   -0.16563E-04   -0.81968E-04  1250   0.195E-01    0.123E-01
RMM:   7    -0.435382769501E+02    0.67332E-04   -0.33413E-04  1151   0.146E-01    0.776E-02
RMM:   8    -0.435383024922E+02   -0.25542E-04   -0.17038E-04  1153   0.103E-01    0.783E-02
RMM:   9    -0.435383213477E+02   -0.18855E-04   -0.16625E-04  1140   0.104E-01    0.771E-02
RMM:  10    -0.435383283241E+02   -0.69763E-05   -0.64298E-05   943   0.743E-02
  23 F= -.43538328E+02 E0= -.43539289E+02  d E =-.304171E-03  mag=     6.4170
 trial-energy change:   -0.000304  1 .order   -0.000491   -0.000800   -0.000182
 step:   6.1693(harm=  6.1693)  dis= 0.00381  next Energy=   -43.538542 (dE=-0.518E-03)
 bond charge predicted
       N       E                     dE             d eps       ncg     rms          rms(c)
DAV:   1    -0.435377800086E+02    0.54134E-03   -0.98530E-02  1116   0.169E+00    0.214E-01
RMM:   2    -0.435384907175E+02   -0.71071E-03   -0.13523E-03  1140   0.354E-01    0.210E-01
RMM:   3    -0.435398756597E+02   -0.13849E-02   -0.20880E-03  1158   0.363E-01    0.477E-01
RMM:   4    -0.435384835472E+02    0.13921E-02   -0.73756E-04  1120   0.263E-01    0.154E-01
RMM:   5    -0.435384105648E+02    0.72982E-04   -0.22176E-04  1139   0.124E-01    0.313E-02
RMM:   6    -0.435384267466E+02   -0.16182E-04   -0.67640E-05   917   0.574E-02    0.419E-02
RMM:   7    -0.435384491619E+02   -0.22415E-04   -0.27274E-05   690   0.496E-02    0.158E-02
RMM:   8    -0.435384952118E+02   -0.46050E-04   -0.18775E-05   683   0.328E-02    0.289E-02
RMM:   9    -0.435385196491E+02   -0.24437E-04   -0.13239E-05   646   0.380E-02    0.166E-02
RMM:  10    -0.435385390273E+02   -0.19378E-04   -0.46133E-06   622   0.197E-02    0.905E-03
RMM:  11    -0.435385568562E+02   -0.17829E-04   -0.24963E-06   613   0.116E-02    0.529E-03
RMM:  12    -0.435385846887E+02   -0.27833E-04   -0.20032E-06   568   0.872E-03    0.419E-03
RMM:  13    -0.435386188763E+02   -0.34188E-04   -0.17613E-06   487   0.713E-03    0.354E-03
RMM:  14    -0.435386827999E+02   -0.63924E-04   -0.51790E-06   578   0.744E-03    0.317E-03
RMM:  15    -0.435387046447E+02   -0.21845E-04   -0.21017E-06   525   0.701E-03    0.194E-03
RMM:  16    -0.435387193138E+02   -0.14669E-04   -0.17182E-06   437   0.677E-03    0.149E-03
RMM:  17    -0.435387298238E+02   -0.10510E-04   -0.17228E-06   390   0.604E-03    0.117E-03
RMM:  18    -0.435387367257E+02   -0.69020E-05   -0.33528E-06   455   0.649E-03
  24 F= -.43538737E+02 E0= -.43539722E+02  d E =-.712573E-03  mag=     6.4145
 curvature:  -5.05 expect dE=-0.130E-02 dE for cont linesearch -0.491E-05
 trial: gam= 1.57949 g(F)=  0.258E-03 g(S)=  0.000E+00 ort =-0.163E-04 (trialstep = 0.156E+01)
 search vector abs. value=  0.892E-03
 bond charge predicted
       N       E                     dE             d eps       ncg     rms          rms(c)
DAV:   1    -0.435367325903E+02    0.19972E-02   -0.39506E-01  1116   0.336E+00    0.418E-01
RMM:   2    -0.435386870292E+02   -0.19544E-02   -0.37005E-03  1127   0.584E-01    0.215E-01
RMM:   3    -0.435393112223E+02   -0.62419E-03   -0.85578E-04  1152   0.220E-01    0.242E-01
RMM:   4    -0.435390920870E+02    0.21914E-03   -0.30058E-04  1108   0.153E-01    0.516E-02
RMM:   5    -0.435391521295E+02   -0.60042E-04   -0.19022E-04  1147   0.742E-02    0.996E-02
RMM:   6    -0.435390832510E+02    0.68879E-04   -0.78642E-05  1007   0.743E-02    0.450E-02
RMM:   7    -0.435390868384E+02   -0.35874E-05   -0.85413E-05   923   0.790E-02
  25 F= -.43539087E+02 E0= -.43540033E+02  d E =-.350113E-03  mag=     6.4154
 ZBRENT: can't locate minimum, use default step
 trial-energy change:   -0.000350  1 .order   -0.000352   -0.000361   -0.000343
 step:   6.2208(harm= 30.8736)  dis= 0.00261  next Energy=   -43.542323 (dE=-0.359E-02)
 bond charge predicted
       N       E                     dE             d eps       ncg     rms          rms(c)
DAV:   1    -0.435183295922E+02    0.20754E-01   -0.35548E+00  1116   0.101E+01    0.127E+00
RMM:   2    -0.435373283387E+02   -0.18999E-01   -0.42392E-02  1131   0.204E+00    0.799E-01
RMM:   3    -0.435502190819E+02   -0.12891E-01   -0.30388E-02  1147   0.141E+00    0.136E+00
RMM:   4    -0.435399714525E+02    0.10248E-01   -0.97228E-03  1120   0.103E+00    0.184E-01
RMM:   5    -0.435408938340E+02   -0.92238E-03   -0.41608E-03  1240   0.351E-01    0.494E-01
RMM:   6    -0.435399996630E+02    0.89417E-03   -0.10892E-03  1195   0.228E-01    0.138E-01
RMM:   7    -0.435399980007E+02    0.16622E-05   -0.75541E-04  1167   0.211E-01    0.155E-01
RMM:   8    -0.435399977487E+02    0.25202E-06   -0.70565E-04  1156   0.204E-01    0.160E-01
RMM:   9    -0.435399157407E+02    0.82008E-04   -0.23286E-04  1126   0.141E-01    0.972E-02
RMM:  10    -0.435399092636E+02    0.64771E-05   -0.13223E-04  1084   0.946E-02    0.563E-02
RMM:  11    -0.435398964011E+02    0.12863E-04   -0.45405E-05   827   0.601E-02    0.190E-02
RMM:  12    -0.435398973795E+02   -0.97839E-06   -0.93313E-06   650   0.215E-02
  26 F= -.43539897E+02 E0= -.43540711E+02  d E =-.116065E-02  mag=     6.4183
 curvature: -17.36 expect dE=-0.290E-02 dE for cont linesearch -0.395E-03
 ZBRENT: increasing intervall
 opt :  15.5520  next Energy=   -43.540496 (dE=-0.176E-02)
 bond charge predicted
       N       E                     dE             d eps       ncg     rms          rms(c)
DAV:   1    -0.434510445504E+02    0.88852E-01   -0.14259E+01  1116   0.204E+01    0.257E+00
RMM:   2    -0.435354964798E+02   -0.84452E-01   -0.22931E-01  1127   0.467E+00    0.192E+00
RMM:   3    -0.436286854952E+02   -0.93189E-01   -0.21886E-01  1154   0.368E+00    0.385E+00
RMM:   4    -0.435443910158E+02    0.84294E-01   -0.60716E-02  1119   0.252E+00    0.115E+00
RMM:   5    -0.435430573510E+02    0.13337E-02   -0.31976E-02  1236   0.103E+00    0.701E-01
RMM:   6    -0.435412665919E+02    0.17908E-02   -0.37483E-03  1184   0.477E-01    0.319E-01
RMM:   7    -0.435412760949E+02   -0.95030E-05   -0.31664E-03  1174   0.422E-01    0.372E-01
RMM:   8    -0.435407053162E+02    0.57078E-03   -0.23151E-03  1129   0.418E-01    0.203E-01
RMM:   9    -0.435405322487E+02    0.17307E-03   -0.87659E-04  1132   0.260E-01    0.992E-02
RMM:  10    -0.435405665786E+02   -0.34330E-04   -0.39110E-04  1242   0.132E-01    0.950E-02
RMM:  11    -0.435405526227E+02    0.13956E-04   -0.14463E-04  1116   0.969E-02    0.503E-02
RMM:  12    -0.435405472756E+02    0.53471E-05   -0.25273E-05   733   0.407E-02
  27 F= -.43540547E+02 E0= -.43541149E+02  d E =-.181055E-02  mag=     6.4209
 curvature: -26.35 expect dE=-0.442E-02 dE for cont linesearch -0.343E-05
 trial: gam= 0.30002 g(F)=  0.168E-03 g(S)=  0.000E+00 ort = 0.108E-04 (trialstep = 0.435E+01)
 search vector abs. value=  0.254E-03
 bond charge predicted
       N       E                     dE             d eps       ncg     rms          rms(c)
DAV:   1    -0.435353616373E+02    0.51910E-02   -0.89118E-01  1116   0.503E+00    0.642E-01
RMM:   2    -0.435438574547E+02   -0.84958E-02   -0.17820E-02  1161   0.122E+00    0.855E-01
RMM:   3    -0.435519662909E+02   -0.81088E-02   -0.30213E-02  1149   0.142E+00    0.132E+00
RMM:   4    -0.435421753229E+02    0.97910E-02   -0.73514E-03  1134   0.819E-01    0.718E-01
RMM:   5    -0.435406503310E+02    0.15250E-02   -0.27873E-03  1160   0.441E-01    0.103E-01
RMM:   6    -0.435407381391E+02   -0.87808E-04   -0.77645E-04  1244   0.165E-01    0.160E-01
RMM:   7    -0.435405993266E+02    0.13881E-03   -0.29223E-04  1165   0.124E-01    0.600E-02
RMM:   8    -0.435404920147E+02    0.10731E-03   -0.29038E-04  1214   0.107E-01    0.945E-02
RMM:   9    -0.435404305952E+02    0.61420E-04   -0.10666E-04  1027   0.829E-02    0.650E-02
RMM:  10    -0.435404150317E+02    0.15563E-04   -0.45855E-05   816   0.585E-02    0.247E-02
RMM:  11    -0.435404294203E+02   -0.14389E-04   -0.29623E-05   742   0.473E-02    0.265E-02
RMM:  12    -0.435404620480E+02   -0.32628E-04   -0.87635E-06   622   0.303E-02    0.109E-02
RMM:  13    -0.435405165750E+02   -0.54527E-04   -0.53613E-06   627   0.113E-02    0.952E-03
RMM:  14    -0.435405659912E+02   -0.49416E-04   -0.35868E-06   623   0.128E-02    0.686E-03
RMM:  15    -0.435406461048E+02   -0.80114E-04   -0.60185E-06   638   0.127E-02    0.645E-03
RMM:  16    -0.435406969669E+02   -0.50862E-04   -0.49699E-06   587   0.938E-03    0.463E-03
RMM:  17    -0.435407424023E+02   -0.45435E-04   -0.49926E-06   611   0.115E-02    0.541E-03
RMM:  18    -0.435407859416E+02   -0.43539E-04   -0.95116E-06   639   0.110E-02    0.250E-03
RMM:  19    -0.435407942819E+02   -0.83404E-05   -0.40507E-06   551   0.991E-03
  28 F= -.43540794E+02 E0= -.43541321E+02  d E =-.247006E-03  mag=     6.4259
 trial-energy change:   -0.000247  1 .order   -0.000217   -0.000744    0.000309
 step:   3.0754(harm=  3.0754)  dis= 0.00677  next Energy=   -43.540810 (dE=-0.263E-03)
 bond charge predicted
       N       E                     dE             d eps       ncg     rms          rms(c)
DAV:   1    -0.435403833752E+02    0.40257E-03   -0.76941E-02  1116   0.147E+00    0.188E-01
RMM:   2    -0.435411535137E+02   -0.77014E-03   -0.16429E-03  1160   0.372E-01    0.268E-01
RMM:   3    -0.435417602979E+02   -0.60678E-03   -0.25255E-03  1142   0.418E-01    0.379E-01
RMM:   4    -0.435409852794E+02    0.77502E-03   -0.68241E-04  1136   0.237E-01    0.235E-01
RMM:   5    -0.435408074917E+02    0.17779E-03   -0.23228E-04  1123   0.138E-01    0.235E-02
RMM:   6    -0.435408097048E+02   -0.22131E-05   -0.87876E-05   915   0.531E-02
  29 F= -.43540810E+02 E0= -.43541357E+02  d E =-.262429E-03  mag=     6.4255
 curvature:  -2.29 expect dE=-0.140E-03 dE for cont linesearch -0.239E-08
 trial: gam= 0.37872 g(F)=  0.612E-04 g(S)=  0.000E+00 ort = 0.515E-06 (trialstep = 0.410E+01)
 search vector abs. value=  0.981E-04
 bond charge predicted
       N       E                     dE             d eps       ncg     rms          rms(c)
DAV:   1    -0.435388878452E+02    0.19196E-02   -0.30744E-01  1116   0.293E+00    0.391E-01
RMM:   2    -0.435411426254E+02   -0.22548E-02   -0.43302E-03  1151   0.599E-01    0.370E-01
RMM:   3    -0.435449524806E+02   -0.38099E-02   -0.92435E-03  1156   0.744E-01    0.798E-01
RMM:   4    -0.435410145728E+02    0.39379E-02   -0.24344E-03  1125   0.498E-01    0.297E-01
RMM:   5    -0.435408025297E+02    0.21204E-03   -0.85605E-04  1192   0.193E-01    0.613E-02
RMM:   6    -0.435408252037E+02   -0.22674E-04   -0.24829E-04  1205   0.101E-01    0.705E-02
RMM:   7    -0.435407797848E+02    0.45419E-04   -0.11115E-04  1005   0.870E-02    0.388E-02
RMM:   8    -0.435407601809E+02    0.19604E-04   -0.40355E-05   767   0.521E-02    0.267E-02
RMM:   9    -0.435407756041E+02   -0.15423E-04   -0.20912E-05   672   0.491E-02    0.242E-02
RMM:  10    -0.435407957243E+02   -0.20120E-04   -0.10571E-05   626   0.306E-02    0.217E-02
RMM:  11    -0.435408110919E+02   -0.15368E-04   -0.64719E-06   603   0.255E-02    0.637E-03
RMM:  12    -0.435408419022E+02   -0.30810E-04   -0.33157E-06   595   0.115E-02    0.490E-03
RMM:  13    -0.435408654087E+02   -0.23507E-04   -0.17160E-06   541   0.886E-03    0.354E-03
RMM:  14    -0.435409102110E+02   -0.44802E-04   -0.24056E-06   508   0.773E-03    0.363E-03
RMM:  15    -0.435409509883E+02   -0.40777E-04   -0.24569E-06   517   0.769E-03    0.187E-03
RMM:  16    -0.435409801777E+02   -0.29189E-04   -0.18443E-06   418   0.643E-03    0.135E-03
RMM:  17    -0.435410013764E+02   -0.21199E-04   -0.17538E-06   425   0.664E-03    0.148E-03
RMM:  18    -0.435410164489E+02   -0.15073E-04   -0.17645E-06   398   0.604E-03    0.922E-04
RMM:  19    -0.435410262641E+02   -0.98151E-05   -0.17898E-06   383   0.591E-03
  30 F= -.43541026E+02 E0= -.43541633E+02  d E =-.216559E-03  mag=     6.4238
 trial-energy change:   -0.000217  1 .order   -0.000185   -0.000252   -0.000118
 step:   7.7285(harm=  7.7285)  dis= 0.00798  next Energy=   -43.541047 (dE=-0.237E-03)
 bond charge predicted
       N       E                     dE             d eps       ncg     rms          rms(c)
DAV:   1    -0.435394400595E+02    0.15764E-02   -0.24107E-01  1116   0.259E+00    0.345E-01
RMM:   2    -0.435412120250E+02   -0.17720E-02   -0.30880E-03  1141   0.506E-01    0.337E-01
RMM:   3    -0.435452051801E+02   -0.39932E-02   -0.66747E-03  1172   0.614E-01    0.888E-01
RMM:   4    -0.435409556036E+02    0.42496E-02   -0.19485E-03  1121   0.450E-01    0.160E-01
RMM:   5    -0.435409958207E+02   -0.40217E-04   -0.64609E-04  1200   0.148E-01    0.562E-02
RMM:   6    -0.435409970006E+02   -0.11799E-05   -0.17202E-04  1148   0.947E-02    0.689E-02
RMM:   7    -0.435409367050E+02    0.60296E-04   -0.78262E-05   947   0.768E-02    0.287E-02
RMM:   8    -0.435409192239E+02    0.17481E-04   -0.36542E-05   780   0.474E-02    0.364E-02
RMM:   9    -0.435409133621E+02    0.58618E-05   -0.20907E-05   685   0.476E-02
  31 F= -.43540913E+02 E0= -.43541558E+02  d E =-.103657E-03  mag=     6.4228
 curvature:  -6.17 expect dE=-0.384E-03 dE for cont linesearch -0.199E-06
 trial: gam= 1.02222 g(F)=  0.622E-04 g(S)=  0.000E+00 ort = 0.178E-05 (trialstep = 0.281E+01)
 search vector abs. value=  0.168E-03
 bond charge predicted
       N       E                     dE             d eps       ncg     rms          rms(c)
DAV:   1    -0.435393167732E+02    0.16025E-02   -0.24870E-01  1116   0.247E+00    0.362E-01
RMM:   2    -0.435413749196E+02   -0.20581E-02   -0.36811E-03  1159   0.496E-01    0.410E-01
RMM:   3    -0.435444708846E+02   -0.30960E-02   -0.70145E-03  1158   0.664E-01    0.896E-01
RMM:   4    -0.435412155191E+02    0.32554E-02   -0.23778E-03  1130   0.466E-01    0.265E-01
RMM:   5    -0.435409948468E+02    0.22067E-03   -0.53481E-04  1131   0.216E-01    0.474E-02
RMM:   6    -0.435410109969E+02   -0.16150E-04   -0.21492E-04  1190   0.893E-02    0.692E-02
RMM:   7    -0.435409741771E+02    0.36820E-04   -0.88291E-05   974   0.758E-02    0.428E-02
RMM:   8    -0.435409583198E+02    0.15857E-04   -0.29490E-05   716   0.512E-02    0.311E-02
RMM:   9    -0.435409726934E+02   -0.14374E-04   -0.33921E-05   742   0.489E-02    0.338E-02
RMM:  10    -0.435409893057E+02   -0.16612E-04   -0.11124E-05   613   0.358E-02    0.237E-02
RMM:  11    -0.435410156762E+02   -0.26371E-04   -0.43186E-06   608   0.184E-02    0.900E-03
RMM:  12    -0.435410454032E+02   -0.29727E-04   -0.27625E-06   585   0.830E-03    0.358E-03
RMM:  13    -0.435410686984E+02   -0.23295E-04   -0.14643E-06   537   0.765E-03    0.271E-03
RMM:  14    -0.435411084945E+02   -0.39796E-04   -0.19012E-06   475   0.670E-03    0.209E-03
RMM:  15    -0.435411491278E+02   -0.40633E-04   -0.24682E-06   513   0.700E-03    0.193E-03
RMM:  16    -0.435411685067E+02   -0.19379E-04   -0.12225E-06   461   0.660E-03    0.115E-03
RMM:  17    -0.435411843703E+02   -0.15864E-04   -0.11374E-06   346   0.531E-03    0.908E-04
RMM:  18    -0.435412017243E+02   -0.17354E-04   -0.15820E-06   368   0.552E-03    0.693E-04
RMM:  19    -0.435412138094E+02   -0.12085E-04   -0.20204E-06   401   0.570E-03    0.527E-04
RMM:  20    -0.435412171296E+02   -0.33203E-05   -0.10452E-06   343   0.562E-03
  32 F= -.43541217E+02 E0= -.43541899E+02  d E =-.303768E-03  mag=     6.4237
 trial-energy change:   -0.000304  1 .order   -0.000147   -0.000180   -0.000114
 step:   7.6725(harm=  7.6725)  dis= 0.00787  next Energy=   -43.541159 (dE=-0.245E-03)
 bond charge predicted
       N       E                     dE             d eps       ncg     rms          rms(c)
DAV:   1    -0.435360821188E+02    0.51317E-02   -0.74372E-01  1116   0.428E+00    0.625E-01
RMM:   2    -0.435412684451E+02   -0.51863E-02   -0.92692E-03  1143   0.797E-01    0.544E-01
RMM:   3    -0.435502840992E+02   -0.90157E-02   -0.17260E-02  1172   0.101E+00    0.143E+00
RMM:   4    -0.435413140536E+02    0.89700E-02   -0.55068E-03  1127   0.727E-01    0.299E-01
RMM:   5    -0.435411881444E+02    0.12591E-03   -0.14349E-03  1155   0.287E-01    0.105E-01
RMM:   6    -0.435411835692E+02    0.45752E-05   -0.47548E-04  1223   0.136E-01    0.110E-01
RMM:   7    -0.435410852121E+02    0.98357E-04   -0.26082E-04  1135   0.128E-01    0.714E-02
RMM:   8    -0.435410296842E+02    0.55528E-04   -0.99047E-05  1058   0.841E-02    0.476E-02
RMM:   9    -0.435410461499E+02   -0.16466E-04   -0.93492E-05  1007   0.742E-02    0.659E-02
RMM:  10    -0.435410536358E+02   -0.74858E-05   -0.24891E-05   713   0.507E-02
  33 F= -.43541054E+02 E0= -.43541761E+02  d E =-.140274E-03  mag=     6.4247
 curvature: -10.09 expect dE=-0.497E-03 dE for cont linesearch -0.101E-04
 ZBRENT: extrapolating
 opt :   9.9678  next Energy=   -43.541069 (dE=-0.155E-03)
 bond charge predicted
       N       E                     dE             d eps       ncg     rms          rms(c)
DAV:   1    -0.435399117399E+02    0.11344E-02   -0.16560E-01  1116   0.202E+00    0.296E-01
RMM:   2    -0.435412571554E+02   -0.13454E-02   -0.24811E-03  1150   0.408E-01    0.319E-01
RMM:   3    -0.435431460102E+02   -0.18889E-02   -0.45223E-03  1158   0.535E-01    0.696E-01
RMM:   4    -0.435411841039E+02    0.19619E-02   -0.15094E-03  1136   0.371E-01    0.216E-01
RMM:   5    -0.435410365501E+02    0.14755E-03   -0.35628E-04  1132   0.170E-01    0.382E-02
RMM:   6    -0.435410547155E+02   -0.18165E-04   -0.14600E-04  1075   0.718E-02    0.552E-02
RMM:   7    -0.435410405126E+02    0.14203E-04   -0.55838E-05   863   0.648E-02    0.344E-02
RMM:   8    -0.435410438405E+02   -0.33279E-05   -0.20405E-05   673   0.436E-02
  34 F= -.43541044E+02 E0= -.43541772E+02  d E =-.130478E-03  mag=     6.4258
 curvature: -14.86 expect dE=-0.133E-02 dE for cont linesearch -0.642E-05
 trial: gam= 1.42806 g(F)=  0.897E-04 g(S)=  0.000E+00 ort =-0.853E-05 (trialstep = 0.175E+01)
 search vector abs. value=  0.409E-03
 bond charge predicted
       N       E                     dE             d eps       ncg     rms          rms(c)
DAV:   1    -0.435395771515E+02    0.14634E-02   -0.23047E-01  1116   0.249E+00    0.342E-01
RMM:   2    -0.435409583909E+02   -0.13812E-02   -0.25001E-03  1130   0.440E-01    0.210E-01
RMM:   3    -0.435417858654E+02   -0.82747E-03   -0.22258E-03  1140   0.374E-01    0.399E-01
RMM:   4    -0.435411830898E+02    0.60278E-03   -0.70159E-04  1121   0.257E-01    0.743E-02
RMM:   5    -0.435412066353E+02   -0.23546E-04   -0.20847E-04  1164   0.839E-02    0.737E-02
RMM:   6    -0.435412082567E+02   -0.16214E-05   -0.71782E-05   964   0.677E-02
  35 F= -.43541208E+02 E0= -.43541995E+02  d E =-.164416E-03  mag=     6.4262
 trial-energy change:   -0.000164  1 .order   -0.000119   -0.000136   -0.000102
 step:   6.9777(harm=  6.9777)  dis= 0.00890  next Energy=   -43.541314 (dE=-0.270E-03)
 bond charge predicted
       N       E                     dE             d eps       ncg     rms          rms(c)
DAV:   1    -0.435267806805E+02    0.14426E-01   -0.20653E+00  1116   0.748E+00    0.103E+00
RMM:   2    -0.435389928455E+02   -0.12212E-01   -0.24659E-02  1130   0.144E+00    0.623E-01
RMM:   3    -0.435465019875E+02   -0.75091E-02   -0.17936E-02  1137   0.106E+00    0.121E+00
RMM:   4    -0.435411204815E+02    0.53815E-02   -0.57195E-03  1121   0.752E-01    0.212E-01
RMM:   5    -0.435413617643E+02   -0.24128E-03   -0.23229E-03  1231   0.264E-01    0.184E-01
RMM:   6    -0.435412723994E+02    0.89365E-04   -0.90269E-04  1226   0.174E-01    0.185E-01
RMM:   7    -0.435411063681E+02    0.16603E-03   -0.56124E-04  1165   0.190E-01    0.810E-02
RMM:   8    -0.435411367060E+02   -0.30338E-04   -0.30601E-04  1192   0.115E-01    0.103E-01
RMM:   9    -0.435411511206E+02   -0.14415E-04   -0.14667E-04  1075   0.973E-02    0.902E-02
RMM:  10    -0.435411520587E+02   -0.93817E-06   -0.41910E-05   831   0.610E-02
  36 F= -.43541152E+02 E0= -.43542019E+02  d E =-.108218E-03  mag=     6.4271
 curvature: -18.38 expect dE=-0.168E-02 dE for cont linesearch -0.408E-04
 ZBRENT: interpolating
 opt :   5.1927  next Energy=   -43.541179 (dE=-0.135E-03)
 bond charge predicted
       N       E                     dE             d eps       ncg     rms          rms(c)
DAV:   1    -0.435395979019E+02    0.15532E-02   -0.24115E-01  1116   0.255E+00    0.348E-01
RMM:   2    -0.435411068146E+02   -0.15089E-02   -0.26827E-03  1133   0.465E-01    0.225E-01
RMM:   3    -0.435428892868E+02   -0.17825E-02   -0.31592E-03  1167   0.431E-01    0.485E-01
RMM:   4    -0.435413902273E+02    0.14991E-02   -0.93931E-04  1119   0.313E-01    0.125E-01
RMM:   5    -0.435413672480E+02    0.22979E-04   -0.30142E-04  1163   0.990E-02    0.550E-02
RMM:   6    -0.435413954998E+02   -0.28252E-04   -0.10278E-04  1040   0.792E-02    0.501E-02
RMM:   7    -0.435414345373E+02   -0.39038E-04   -0.72750E-05   886   0.669E-02    0.397E-02
RMM:   8    -0.435414478412E+02   -0.13304E-04   -0.30949E-05   716   0.562E-02    0.233E-02
RMM:   9    -0.435414697201E+02   -0.21879E-04   -0.19713E-05   660   0.387E-02    0.266E-02
RMM:  10    -0.435414729988E+02   -0.32786E-05   -0.93289E-06   588   0.354E-02
  37 F= -.43541473E+02 E0= -.43542314E+02  d E =-.429158E-03  mag=     6.4273
 curvature: -12.11 expect dE=-0.799E-03 dE for cont linesearch -0.998E-05
 ZBRENT: interpolating
 opt :   3.0769  next Energy=   -43.541497 (dE=-0.453E-03)
 bond charge predicted
       N       E                     dE             d eps       ncg     rms          rms(c)
DAV:   1    -0.435391286241E+02    0.23411E-02   -0.33782E-01  1116   0.302E+00    0.415E-01
RMM:   2    -0.435412465735E+02   -0.21179E-02   -0.40320E-03  1129   0.571E-01    0.298E-01
RMM:   3    -0.435439427453E+02   -0.26962E-02   -0.55725E-03  1175   0.579E-01    0.646E-01
RMM:   4    -0.435415152709E+02    0.24275E-02   -0.16847E-03  1124   0.415E-01    0.173E-01
RMM:   5    -0.435414673932E+02    0.47878E-04   -0.47066E-04  1184   0.133E-01    0.607E-02
RMM:   6    -0.435414880351E+02   -0.20642E-04   -0.18610E-04  1157   0.974E-02    0.713E-02
RMM:   7    -0.435414575659E+02    0.30469E-04   -0.10782E-04  1005   0.815E-02    0.419E-02
RMM:   8    -0.435414451678E+02    0.12398E-04   -0.45740E-05   820   0.602E-02    0.318E-02
RMM:   9    -0.435414423554E+02    0.28124E-05   -0.34170E-05   763   0.484E-02
  38 F= -.43541442E+02 E0= -.43542249E+02  d E =-.398515E-03  mag=     6.4272
 curvature: -29.21 expect dE=-0.160E-02 dE for cont linesearch -0.141E-04
 ZBRENT: interpolating
 opt :   3.9950  next Energy=   -43.541449 (dE=-0.405E-03)
 bond charge predicted
       N       E                     dE             d eps       ncg     rms          rms(c)
DAV:   1    -0.435410214075E+02    0.42376E-03   -0.63814E-02  1116   0.131E+00    0.179E-01
RMM:   2    -0.435413812867E+02   -0.35988E-03   -0.66793E-04  1121   0.232E-01    0.953E-02
RMM:   3    -0.435415448978E+02   -0.16361E-03   -0.31114E-04  1148   0.136E-01    0.127E-01
RMM:   4    -0.435414742285E+02    0.70669E-04   -0.91202E-05  1050   0.988E-02    0.290E-02
RMM:   5    -0.435414799905E+02   -0.57620E-05   -0.31562E-05   682   0.339E-02
  39 F= -.43541480E+02 E0= -.43542284E+02  d E =-.436150E-03  mag=     6.4273
 curvature: -13.34 expect dE=-0.745E-03 dE for cont linesearch -0.574E-05
 ZBRENT: bisectioning
 opt :   4.5939  next Energy=   -43.541488 (dE=-0.444E-03)
 bond charge predicted
       N       E                     dE             d eps       ncg     rms          rms(c)
DAV:   1    -0.435413008495E+02    0.17338E-03   -0.27134E-02  1116   0.860E-01    0.121E-01
RMM:   2    -0.435415317266E+02   -0.23088E-03   -0.55795E-04  1148   0.204E-01    0.148E-01
RMM:   3    -0.435417302909E+02   -0.19856E-03   -0.10943E-03  1132   0.280E-01    0.255E-01
RMM:   4    -0.435415233214E+02    0.20697E-03   -0.27156E-04  1108   0.162E-01    0.912E-02
RMM:   5    -0.435414896379E+02    0.33684E-04   -0.75084E-05   931   0.688E-02    0.214E-02
RMM:   6    -0.435414926575E+02   -0.30196E-05   -0.22526E-05   655   0.364E-02
  40 F= -.43541493E+02 E0= -.43542315E+02  d E =-.448817E-03  mag=     6.4273
 curvature: -18.09 expect dE=-0.107E-02 dE for cont linesearch -0.133E-05
 trial: gam= 0.16632 g(F)=  0.593E-04 g(S)=  0.000E+00 ort = 0.547E-05 (trialstep = 0.232E+01)
 search vector abs. value=  0.724E-04
 bond charge predicted
       N       E                     dE             d eps       ncg     rms          rms(c)
DAV:   1    -0.435411514738E+02    0.33816E-03   -0.71730E-02  1116   0.144E+00    0.186E-01
RMM:   2    -0.435417811349E+02   -0.62966E-03   -0.13517E-03  1157   0.328E-01    0.257E-01
RMM:   3    -0.435423942370E+02   -0.61310E-03   -0.19297E-03  1145   0.361E-01    0.410E-01
RMM:   4    -0.435417002640E+02    0.69397E-03   -0.69504E-04  1123   0.247E-01    0.170E-01
RMM:   5    -0.435415984420E+02    0.10182E-03   -0.17550E-04  1089   0.128E-01    0.428E-02
RMM:   6    -0.435415914881E+02    0.69539E-05   -0.39488E-05   764   0.545E-02
  41 F= -.43541591E+02 E0= -.43542436E+02  d E =-.988306E-04  mag=     6.4264
 trial-energy change:   -0.000099  1 .order   -0.000113   -0.000139   -0.000087
 step:   6.1593(harm=  6.1593)  dis= 0.00356  next Energy=   -43.541678 (dE=-0.185E-03)
 bond charge predicted
       N       E                     dE             d eps       ncg     rms          rms(c)
DAV:   1    -0.435404046619E+02    0.11938E-02   -0.19695E-01  1116   0.238E+00    0.307E-01
RMM:   2    -0.435420196753E+02   -0.16150E-02   -0.31620E-03  1153   0.511E-01    0.399E-01
RMM:   3    -0.435439941497E+02   -0.19745E-02   -0.49799E-03  1148   0.575E-01    0.722E-01
RMM:   4    -0.435418245447E+02    0.21696E-02   -0.19042E-03  1141   0.399E-01    0.243E-01
RMM:   5    -0.435416236547E+02    0.20089E-03   -0.42259E-04  1121   0.201E-01    0.397E-02
RMM:   6    -0.435416471043E+02   -0.23450E-04   -0.19502E-04  1149   0.800E-02    0.624E-02
RMM:   7    -0.435416274066E+02    0.19698E-04   -0.67588E-05   920   0.628E-02    0.344E-02
RMM:   8    -0.435416250371E+02    0.23695E-05   -0.32216E-05   724   0.530E-02
  42 F= -.43541625E+02 E0= -.43542521E+02  d E =-.132380E-03  mag=     6.4239
 curvature:  -3.70 expect dE=-0.213E-03 dE for cont linesearch -0.151E-05
 trial: gam= 1.09866 g(F)=  0.574E-04 g(S)=  0.000E+00 ort =-0.543E-05 (trialstep = 0.168E+01)
 search vector abs. value=  0.133E-03
 bond charge predicted
       N       E                     dE             d eps       ncg     rms          rms(c)
DAV:   1    -0.435412229268E+02    0.40448E-03   -0.68716E-02  1116   0.139E+00    0.190E-01
RMM:   2    -0.435419219970E+02   -0.69907E-03   -0.17143E-03  1149   0.347E-01    0.319E-01
RMM:   3    -0.435421397588E+02   -0.21776E-03   -0.25001E-03  1125   0.429E-01    0.387E-01
RMM:   4    -0.435417401951E+02    0.39956E-03   -0.66669E-04  1139   0.240E-01    0.173E-01
RMM:   5    -0.435416159214E+02    0.12427E-03   -0.13977E-04  1098   0.115E-01    0.316E-02
RMM:   6    -0.435416125276E+02    0.33938E-05   -0.33877E-05   770   0.476E-02
  43 F= -.43541613E+02 E0= -.43542469E+02  d E =0.125095E-04  mag=     6.4232
 trial-energy change:    0.000013  1 .order   -0.000073   -0.000086   -0.000060
 step:   5.4940(harm=  5.4940)  dis= 0.00324  next Energy=   -43.541766 (dE=-0.141E-03)
 bond charge predicted
       N       E                     dE             d eps       ncg     rms          rms(c)
DAV:   1    -0.435392544488E+02    0.23615E-02   -0.35403E-01  1116   0.314E+00    0.424E-01
RMM:   2    -0.435422551010E+02   -0.30007E-02   -0.63858E-03  1137   0.705E-01    0.565E-01
RMM:   3    -0.435449483483E+02   -0.26932E-02   -0.10749E-02  1141   0.863E-01    0.881E-01
RMM:   4    -0.435418577108E+02    0.30906E-02   -0.30940E-03  1128   0.545E-01    0.393E-01
RMM:   5    -0.435412799581E+02    0.57775E-03   -0.70544E-04  1127   0.245E-01    0.479E-02
RMM:   6    -0.435412861255E+02   -0.61674E-05   -0.38956E-04  1253   0.119E-01    0.934E-02
RMM:   7    -0.435411612954E+02    0.12483E-03   -0.11338E-04  1079   0.891E-02    0.568E-02
RMM:   8    -0.435411490857E+02    0.12210E-04   -0.66155E-05   942   0.624E-02    0.416E-02
RMM:   9    -0.435411608699E+02   -0.11784E-04   -0.35027E-05   757   0.475E-02    0.315E-02
RMM:  10    -0.435412227143E+02   -0.61844E-04   -0.10671E-05   628   0.285E-02    0.123E-02
RMM:  11    -0.435412748916E+02   -0.52177E-04   -0.57693E-06   616   0.176E-02    0.838E-03
RMM:  12    -0.435413518959E+02   -0.77004E-04   -0.53401E-06   629   0.192E-02    0.749E-03
RMM:  13    -0.435414286632E+02   -0.76767E-04   -0.37063E-06   616   0.115E-02    0.478E-03
RMM:  14    -0.435415588865E+02   -0.13022E-03   -0.61367E-06   606   0.101E-02    0.340E-03
RMM:  15    -0.435416333278E+02   -0.74441E-04   -0.37253E-06   549   0.873E-03    0.195E-03
RMM:  16    -0.435416970860E+02   -0.63758E-04   -0.36736E-06   535   0.828E-03    0.157E-03
RMM:  17    -0.435417423423E+02   -0.45256E-04   -0.35294E-06   524   0.814E-03    0.133E-03
RMM:  18    -0.435417727477E+02   -0.30405E-04   -0.37736E-06   514   0.817E-03    0.115E-03
RMM:  19    -0.435417818250E+02   -0.90773E-05   -0.21185E-06   456   0.755E-03
  44 F= -.43541782E+02 E0= -.43542595E+02  d E =-.156788E-03  mag=     6.4228
 curvature:  -7.09 expect dE=-0.188E-03 dE for cont linesearch -0.388E-06
 trial: gam= 0.05567 g(F)=  0.265E-04 g(S)=  0.000E+00 ort = 0.269E-05 (trialstep = 0.244E+01)
 search vector abs. value=  0.272E-04
 bond charge predicted
       N       E                     dE             d eps       ncg     rms          rms(c)
DAV:   1    -0.435416295310E+02    0.14322E-03   -0.30748E-02  1116   0.935E-01    0.120E-01
RMM:   2    -0.435418005787E+02   -0.17105E-03   -0.38979E-04  1120   0.187E-01    0.954E-02
RMM:   3    -0.435420995810E+02   -0.29900E-03   -0.59028E-04  1128   0.190E-01    0.273E-01
RMM:   4    -0.435418039647E+02    0.29562E-03   -0.19221E-04  1062   0.127E-01    0.461E-02
RMM:   5    -0.435418140082E+02   -0.10044E-04   -0.65510E-05   771   0.506E-02    0.186E-02
RMM:   6    -0.435418118751E+02    0.21331E-05   -0.17435E-05   656   0.310E-02
  45 F= -.43541812E+02 E0= -.43542617E+02  d E =-.300501E-04  mag=     6.4235
 trial-energy change:   -0.000030  1 .order   -0.000045   -0.000065   -0.000025
 step:   3.9988(harm=  3.9988)  dis= 0.00216  next Energy=   -43.541835 (dE=-0.533E-04)
 reached required accuracy - stopping structural energy minimisation
