 vasp.5.3.3 18Dez12 (build Sep  7 2015 22:32:56) complex                        
  
 executed on             LinuxIFC date 2022.12.07  13:55:21
 running on    1 total cores
 distrk:  each k-point on    1 cores,    1 groups
 distr:  one band on NCORES_PER_BAND=   1 cores,    1 groups


--------------------------------------------------------------------------------------------------------


 INCAR:
 POTCAR:    PAW_PBE Fe 06Sep2000                  
 POTCAR:    PAW_PBE Fe 06Sep2000                  
   VRHFIN =Fe:  d7 s1                                                           
   LEXCH  = PE                                                                  
   EATOM  =   594.3153 eV,   43.6809 Ry                                         
                                                                                
   TITEL  = PAW_PBE Fe 06Sep2000                                                
   LULTRA =        F    use ultrasoft PP ?                                      
   IUNSCR =        1    unscreen: 0-lin 1-nonlin 2-no                           
   RPACOR =    2.000    partial core radius                                     
   POMASS =   55.847; ZVAL   =    8.000    mass and valenz                      
   RCORE  =    2.300    outmost cutoff radius                                   
   RWIGS  =    2.460; RWIGS  =    1.302    wigner-seitz radius (au A)           
   ENMAX  =  267.882; ENMIN  =  200.911 eV                                      
   RCLOC  =    1.701    cutoff for local pot                                    
   LCOR   =        T    correct aug charges                                     
   LPAW   =        T    paw PP                                                  
   EAUG   =  511.368                                                            
   DEXC   =    0.000                                                            
   RMAX   =    2.356    core radius for proj-oper                               
   RAUG   =    1.300    factor for augmentation sphere                          
   RDEP   =    2.442    radius for radial grids                                 
   RDEPT  =    1.890    core radius for aug-charge                              
                                                                                
   Atomic configuration                                                         
    9 entries                                                                   
     n  l   j            E        occ.                                          
     1  0  0.50     -6993.8440   2.0000                                         
     2  0  0.50      -814.6047   2.0000                                         
     2  1  1.50      -693.3689   6.0000                                         
     3  0  0.50       -89.4732   2.0000                                         
     3  1  1.50       -55.6373   6.0000                                         
     3  2  2.50        -3.8151   7.0000                                         
     4  0  0.50        -4.2551   1.0000                                         
     4  1  1.50        -3.4015   0.0000                                         
     4  3  2.50        -1.3606   0.0000                                         
   Description                                                                  
     l       E           TYP  RCUT    TYP  RCUT                                 
     2     -3.8151135     23  2.300                                             
     2     -5.1756961     23  2.300                                             
     0     -4.2550963     23  2.300                                             
     0      7.2035603     23  2.300                                             
     1     -2.7211652     23  2.300                                             
     1     18.4316424     23  2.300                                             
  local pseudopotential read in
  partial core-charges read in
  partial kinetic energy density read in
  atomic valenz-charges read in
  non local Contribution for L=           2  read in
    real space projection operators read in
  non local Contribution for L=           2  read in
    real space projection operators read in
  non local Contribution for L=           0  read in
    real space projection operators read in
  non local Contribution for L=           0  read in
    real space projection operators read in
  non local Contribution for L=           1  read in
    real space projection operators read in
  non local Contribution for L=           1  read in
    real space projection operators read in
    PAW grid and wavefunctions read in
 
   number of l-projection  operators is LMAX  =           6
   number of lm-projection operators is LMMAX =          18
 
  PAW_PBE Fe 06Sep2000                  :
 energy of atom  1       EATOM= -594.3153
 kinetic energy error for atom=    0.0205 (will be added to EATOM!!)
 
 
 POSCAR: header                                  
  positions in cartesian coordinates
  No initial velocities read in
 exchange correlation table for  LEXCH =        8
   RHO(1)=    0.500       N(1)  =     2000
   RHO(2)=  100.500       N(2)  =     4000
 


--------------------------------------------------------------------------------------------------------


 ion  position               nearest neighbor table
   1  0.000  0.000  0.000-   2 2.44   2 2.44   3 2.82
   2  0.354  0.500  0.074-   1 2.44   3 2.44   1 2.44   3 2.44   4 2.82
   3  0.000  0.000  0.148-   4 2.44   2 2.44   4 2.44   2 2.44   1 2.82   5 2.82
   4  0.354  0.500  0.222-   3 2.44   3 2.44   5 2.44   5 2.44   2 2.82   6 2.82
   5  0.000  0.000  0.296-   6 2.44   6 2.44   4 2.44   4 2.44   3 2.82
   6  0.354  0.500  0.370-   5 2.44   5 2.44   4 2.82
 
  LATTYP: Found a simple orthorhombic cell.
 ALAT       =     2.8188897900
 B/A-ratio  =     1.4142135617
 C/A-ratio  =     6.7569950899
  
  Lattice vectors:
  
 A1 = (   0.0000000000,  -2.8188897900,   0.0000000000)
 A2 = (  -3.9865121700,   0.0000000000,   0.0000000000)
 A3 = (   0.0000000000,   0.0000000000, -19.0472244700)


Analysis of symmetry for initial positions (statically):
=====================================================================
 Subroutine PRICEL returns:
 Original cell was already a primitive cell.
 

 Routine SETGRP: Setting up the symmetry group for a 
 simple orthorhombic supercell.


 Subroutine GETGRP returns: Found  4 space group operations
 (whereof  2 operations were pure point group operations)
 out of a pool of  8 trial point group operations.


The static configuration has the point symmetry C_1h.
 The point group associated with its full space group is C_2h.


Analysis of symmetry for dynamics (positions and initial velocities):
=====================================================================
 Subroutine PRICEL returns:
 Original cell was already a primitive cell.
 

 Routine SETGRP: Setting up the symmetry group for a 
 simple orthorhombic supercell.


 Subroutine GETGRP returns: Found  4 space group operations
 (whereof  2 operations were pure point group operations)
 out of a pool of  8 trial point group operations.


The dynamic configuration has the point symmetry C_1h.
 The point group associated with its full space group is C_2h.


Analysis of constrained symmetry for selective dynamics:
=====================================================================
 Subroutine PRICEL returns:
 Original cell was already a primitive cell.
 

 Routine SETGRP: Setting up the symmetry group for a 
 simple orthorhombic supercell.


 Subroutine GETGRP returns: Found  2 space group operations
 (whereof  2 operations were pure point group operations)
 out of a pool of  8 trial point group operations.


The constrained configuration has the point symmetry C_1h.


Analysis of magnetic symmetry:
=====================================================================

 Subroutine MAGSYM returns: Found  2 space group operations
 (whereof  2 operations were pure point group operations)
 out of a pool of  2 trial space group operations
 (whereof  2 operations were pure point group operations)
 and found also     1 'primitive' translations


The magnetic configuration has the point symmetry C_1h.


 irot  :   1
 --------------------------------------------------------------------
 isymop:   1   0   0
           0   1   0
           0   0   1

 gtrans:     0.0000000     0.0000000     0.0000000

 ptrans:     0.0000000     0.0000000     0.0000000
 rotmap:
 (   1->   1)  (   2->   2)  (   3->   3)  (   4->   4)  (   5->   5) 
 (   6->   6) 


 irot  :   2
 --------------------------------------------------------------------
 isymop:   1   0   0
           0  -1   0
           0   0   1

 gtrans:     0.0000000     0.0000000     0.0000000

 ptrans:     0.0000000     0.0000000     0.0000000
 rotmap:
 (   1->   1)  (   2->   2)  (   3->   3)  (   4->   4)  (   5->   5) 
 (   6->   6) 
 
 
 KPOINTS: K-Points                                

Automatic generation of k-mesh.
Space group operators:
 irot       det(A)        alpha          n_x          n_y          n_z        tau_x        tau_y        tau_z
    1     1.000000     0.000000     1.000000     0.000000     0.000000     0.000000     0.000000     0.000000
    2    -1.000000   180.000000     0.000000     1.000000     0.000000     0.000000     0.000000     0.000000
 
 Subroutine IBZKPT returns following result:
 ===========================================
 
 Found      9 irreducible k-points:
 
 Following reciprocal coordinates:
            Coordinates               Weight
  0.000000  0.000000  0.000000      1.000000
  0.200000  0.000000  0.000000      2.000000
  0.400000  0.000000  0.000000      2.000000
  0.000000  0.200000  0.000000      2.000000
  0.200000  0.200000  0.000000      4.000000
  0.400000  0.200000  0.000000      4.000000
  0.000000  0.400000  0.000000      2.000000
  0.200000  0.400000  0.000000      4.000000
  0.400000  0.400000  0.000000      4.000000
 
 Following cartesian coordinates:
            Coordinates               Weight
  0.000000  0.000000  0.000000      1.000000
  0.050169  0.000000  0.000000      2.000000
  0.100338  0.000000  0.000000      2.000000
  0.000000  0.070950  0.000000      2.000000
  0.050169  0.070950  0.000000      4.000000
  0.100338  0.070950  0.000000      4.000000
  0.000000  0.141900  0.000000      2.000000
  0.050169  0.141900  0.000000      4.000000
  0.100338  0.141900  0.000000      4.000000
 


--------------------------------------------------------------------------------------------------------




 Dimension of arrays:
   k-points           NKPTS =      9   k-points in BZ     NKDIM =      9   number of bands    NBANDS=     31
   number of dos      NEDOS =    301   number of ions     NIONS =      6
   non local maximal  LDIM  =      6   non local SUM 2l+1 LMDIM =     18
   total plane-waves  NPLWV =  22680
   max r-space proj   IRMAX =      1   max aug-charges    IRDMAX=   3974
   dimension x,y,z NGX =    18 NGY =   14 NGZ =   90
   dimension x,y,z NGXF=    36 NGYF=   28 NGZF=  180
   support grid    NGXF=    36 NGYF=   28 NGZF=  180
   ions per type =               6
 NGX,Y,Z   is equivalent  to a cutoff of   7.51,  8.26,  7.86 a.u.
 NGXF,Y,Z  is equivalent  to a cutoff of  15.01, 16.51, 15.71 a.u.


 I would recommend the setting:
   dimension x,y,z NGX =    18 NGY =   13 NGZ =   87
 SYSTEM =  Crystal                                 
 POSCAR =  header                                  

 Startparameter for this run:
   NWRITE =      2    write-flag & timer
   PREC   = normal    normal or accurate (medium, high low for compatibility)
   ISTART =      0    job   : 0-new  1-cont  2-samecut
   ICHARG =      2    charge: 1-file 2-atom 10-const
   ISPIN  =      2    spin polarized calculation?
   LNONCOLLINEAR =      F non collinear calculations
   LSORBIT =      F    spin-orbit coupling
   INIWAV =      1    electr: 0-lowe 1-rand  2-diag
   LASPH  =      F    aspherical Exc in radial PAW
   METAGGA=      F    non-selfconsistent MetaGGA calc.

 Electronic Relaxation 1
   ENCUT  =  350.0 eV  25.72 Ry    5.07 a.u.   6.08  4.30 29.06*2*pi/ulx,y,z
   ENINI  =  350.0     initial cutoff
   ENAUG  =  511.4 eV  augmentation charge cutoff
   NELM   =     60;   NELMIN=  4; NELMDL=-10     # of ELM steps 
   EDIFF  = 0.1E-04   stopping-criterion for ELM
   LREAL  =      F    real-space projection
   NLSPLINE    = F    spline interpolate recip. space projectors
   LCOMPAT=      F    compatible to vasp.4.4
   GGA_COMPAT  = T    GGA compatible to vasp.4.4-vasp.4.6
   LMAXPAW     = -100 max onsite density
   LMAXMIX     =    2 max onsite mixed and CHGCAR
   VOSKOWN=      0    Vosko Wilk Nusair interpolation
   ROPT   =    0.00000
 Ionic relaxation
   EDIFFG = -.1E-01   stopping-criterion for IOM
   NSW    =    300    number of steps for IOM
   NBLOCK =      1;   KBLOCK =    300    inner block; outer block 
   IBRION =      2    ionic relax: 0-MD 1-quasi-New 2-CG
   NFREE  =      1    steps in history (QN), initial steepest desc. (CG)
   ISIF   =      2    stress and relaxation
   IWAVPR =     11    prediction:  0-non 1-charg 2-wave 3-comb
   ISYM   =      2    0-nonsym 1-usesym 2-fastsym
   LCORR  =      T    Harris-Foulkes like correction to forces

   POTIM  = 0.5000    time-step for ionic-motion
   TEIN   =    0.0    initial temperature
   TEBEG  =    0.0;   TEEND  =   0.0 temperature during run
   SMASS  =  -3.00    Nose mass-parameter (am)
   estimated Nose-frequenzy (Omega)   =  0.10E-29 period in steps =****** mass=  -0.363E-27a.u.
   SCALEE = 1.0000    scale energy and forces
   NPACO  =    256;   APACO  = 16.0  distance and # of slots for P.C.
   PSTRESS=    0.0 pullay stress

  Mass of Ions in am
   POMASS =  55.85
  Ionic Valenz
   ZVAL   =   8.00
  Atomic Wigner-Seitz radii
   RWIGS  =  -1.00
  virtual crystal weights 
   VCA    =   1.00
   NELECT =      48.0000    total number of electrons
   NUPDOWN=      -1.0000    fix difference up-down

 DOS related values:
   EMIN   =  10.00;   EMAX   =-10.00  energy-range for DOS
   EFERMI =   0.00
   ISMEAR =     2;   SIGMA  =   0.10  broadening in eV -4-tet -1-fermi 0-gaus

 Electronic relaxation 2 (details)
   IALGO  =     68    algorithm
   LDIAG  =      T    sub-space diagonalisation (order eigenvalues)
   LSUBROT=      T    optimize rotation matrix (better conditioning)
   TURBO    =      0    0=normal 1=particle mesh
   IRESTART =      0    0=no restart 2=restart with 2 vectors
   NREBOOT  =      0    no. of reboots
   NMIN     =      0    reboot dimension
   EREF     =   0.00    reference energy to select bands
   IMIX   =      4    mixing-type and parameters
     AMIX     =   0.40;   BMIX     =  1.00
     AMIX_MAG =   1.60;   BMIX_MAG =  1.00
     AMIN     =   0.10
     WC   =   100.;   INIMIX=   1;  MIXPRE=   1;  MAXMIX= -45

 Intra band minimization:
   WEIMIN = 0.0010     energy-eigenvalue tresh-hold
   EBREAK =  0.81E-07  absolut break condition
   DEPER  =   0.30     relativ break condition  

   TIME   =   0.40     timestep for ELM

  volume/ion in A,a.u.               =      35.67       240.74
  Fermi-wavevector in a.u.,A,eV,Ry     =   0.994613  1.879547 13.459641  0.989256
  Thomas-Fermi vector in A             =   2.126577
 
 Write flags
   LWAVE  =      F    write WAVECAR
   LCHARG =      F    write CHGCAR
   LVTOT  =      F    write LOCPOT, total local potential
   LVHAR  =      F    write LOCPOT, Hartree potential only
   LELF   =      F    write electronic localiz. function (ELF)
   LORBIT =      0    0 simple, 1 ext, 2 COOP (PROOUT)


 Dipole corrections
   LMONO  =      F    monopole corrections only (constant potential shift)
   LDIPOL =      F    correct potential (dipole corrections)
   IDIPOL =      0    1-x, 2-y, 3-z, 4-all directions 
   EPSILON=  1.0000000 bulk dielectric constant

 Exchange correlation treatment:
   GGA     =    --    GGA type
   LEXCH   =     8    internal setting for exchange type
   VOSKOWN=      0    Vosko Wilk Nusair interpolation
   LHFCALC =     F    Hartree Fock is set to
   LHFONE  =     F    Hartree Fock one center treatment
   AEXX    =    0.0000 exact exchange contribution

 Linear response parameters
   LEPSILON=     F    determine dielectric tensor
   LRPA    =     F    only Hartree local field effects (RPA)
   LNABLA  =     F    use nabla operator in PAW spheres
   LVEL    =     F    velocity operator in full k-point grid
   LINTERFAST=   F  fast interpolation
   KINTER  =     0    interpolate to denser k-point grid
   CSHIFT  =0.1000    complex shift for real part using Kramers Kronig
   OMEGAMAX=  -1.0    maximum frequency
   DEG_THRESHOLD= 0.2000000E-02 threshold for treating states as degnerate
   RTIME   =    0.100 relaxation time in fs

 Orbital magnetization related:
   ORBITALMAG=     F  switch on orbital magnetization
   LCHIMAG   =     F  perturbation theory with respect to B field
   DQ        =  0.001000  dq finite difference perturbation B field



--------------------------------------------------------------------------------------------------------


 conjugate gradient relaxation of ions
   using selective dynamics as specified on POSCAR
   WARNING: If single coordinates had been selected the selection of coordinates
            is made according to the corresponding   d i r e c t   coordinates!
            Don't support selection of single cartesian coordinates -- sorry ...
  !
 charge density and potential will be updated during run
 spin polarized calculation
 RMM-DIIS sequential band-by-band and
  variant of blocked Davidson during initial phase
 perform sub-space diagonalisation
    before iterative eigenvector-optimisation
 modified Broyden-mixing scheme, WC =      100.0
 initial mixing is a Kerker type mixing with AMIX =  0.4000 and BMIX =      1.0000
 Hartree-type preconditioning will be used
 using additional bands            7
 reciprocal scheme for non local part
 use partial core corrections
 calculate Harris-corrections to forces 
   (improved forces if not selfconsistent)
 use gradient corrections 
 use of overlap-Matrix (Vanderbilt PP)
 Methfessel and Paxton  Order N= 2 SIGMA  =   0.10


--------------------------------------------------------------------------------------------------------


  energy-cutoff  :      350.00
  volume of cell :      214.04
      direct lattice vectors                 reciprocal lattice vectors
     3.986512170  0.000000000  0.000000000     0.250845842  0.000000000  0.000000000
     0.000000000  2.818889790  0.000000000     0.000000000  0.354749591  0.000000000
     0.000000000  0.000000000 19.047224470     0.000000000  0.000000000  0.052501088

  length of vectors
     3.986512170  2.818889790 19.047224470     0.250845842  0.354749591  0.052501088


 
 k-points in units of 2pi/SCALE and weight: K-Points                                
   0.00000000  0.00000000  0.00000000       0.040
   0.05016917  0.00000000  0.00000000       0.080
   0.10033834  0.00000000  0.00000000       0.080
   0.00000000  0.07094992  0.00000000       0.080
   0.05016917  0.07094992  0.00000000       0.160
   0.10033834  0.07094992  0.00000000       0.160
   0.00000000  0.14189984  0.00000000       0.080
   0.05016917  0.14189984  0.00000000       0.160
   0.10033834  0.14189984  0.00000000       0.160
 
 k-points in reciprocal lattice and weights: K-Points                                
   0.00000000  0.00000000  0.00000000       0.040
   0.20000000  0.00000000  0.00000000       0.080
   0.40000000  0.00000000  0.00000000       0.080
   0.00000000  0.20000000  0.00000000       0.080
   0.20000000  0.20000000  0.00000000       0.160
   0.40000000  0.20000000  0.00000000       0.160
   0.00000000  0.40000000  0.00000000       0.080
   0.20000000  0.40000000  0.00000000       0.160
   0.40000000  0.40000000  0.00000000       0.160
 
 position of ions in fractional coordinates (direct lattice) 
   0.00000000  0.00000000  0.00000000
   0.35355339  0.50000000  0.07399739
   0.00000000  0.00000000  0.14799478
   0.35355339  0.50000000  0.22199217
   0.00000000  0.00000000  0.29598956
   0.35355339  0.50000000  0.36998695
 
 position of ions in cartesian coordinates  (Angst):
   0.00000000  0.00000000  0.00000000
   1.40944489  1.40944489  1.40944489
   0.00000000  0.00000000  2.81888979
   1.40944489  1.40944489  4.22833468
   0.00000000  0.00000000  5.63777958
   1.40944489  1.40944489  7.04722447
 


--------------------------------------------------------------------------------------------------------


 k-point  1 :   0.0000 0.0000 0.0000  plane waves:    3207
 k-point  2 :   0.2000 0.0000 0.0000  plane waves:    3196
 k-point  3 :   0.4000 0.0000 0.0000  plane waves:    3180
 k-point  4 :   0.0000 0.2000 0.0000  plane waves:    3171
 k-point  5 :   0.2000 0.2000 0.0000  plane waves:    3190
 k-point  6 :   0.4000 0.2000 0.0000  plane waves:    3183
 k-point  7 :   0.0000 0.4000 0.0000  plane waves:    3174
 k-point  8 :   0.2000 0.4000 0.0000  plane waves:    3164
 k-point  9 :   0.4000 0.4000 0.0000  plane waves:    3182

 maximum and minimum number of plane-waves per node :      3207     3164

 maximum number of plane-waves:      3207
 maximum index in each direction: 
   IXMAX=    6   IYMAX=    4   IZMAX=   29
   IXMIN=   -6   IYMIN=   -4   IZMIN=  -29

 WARNING: aliasing errors must be expected set NGX to  26 to avoid them
 WARNING: aliasing errors must be expected set NGY to  18 to avoid them
 WARNING: aliasing errors must be expected set NGZ to 118 to avoid them
 aliasing errors are usually negligible using standard VASP settings
 and one can safely disregard these warnings

 serial   3D FFT for wavefunctions
 parallel 3D FFT for charge:
    minimum data exchange during FFTs selected (reduces bandwidth)


 total amount of memory used by VASP on root node    85477. kBytes
========================================================================

   base      :      30000. kBytes
   nonl-proj :       4464. kBytes
   fftplans  :       6232. kBytes
   grid      :      14999. kBytes
   one-center:        186. kBytes
   wavefun   :      29596. kBytes
 
 Broyden mixing: mesh for mixing (old mesh)
   NGX = 13   NGY =  9   NGZ = 59
  (NGX  = 36   NGY  = 28   NGZ  =180)
  gives a total of   6903 points

 initial charge density was supplied:
 charge density of overlapping atoms calculated
 number of electron      48.0000000 magnetization       6.0000000
 keeping initial charge density in first step


--------------------------------------------------------------------------------------------------------


 Maximum index for augmentation-charges         3665 (set IRDMAX)


--------------------------------------------------------------------------------------------------------


 First call to EWALD:  gamma=   0.296
 Maximum number of real-space cells 4x 5x 1
 Maximum number of reciprocal cells 2x 2x 8

 FEWALD executed in parallel
    FEWALD:  cpu time    0.00: real time    0.00


----------------------------------------- Iteration    1(   1)  ---------------------------------------


    POTLOK:  cpu time    0.30: real time    0.30
    SETDIJ:  cpu time    0.06: real time    0.06
     EDDAV:  cpu time   12.96: real time   12.98
       DOS:  cpu time    0.00: real time    0.00
    --------------------------------------------
      LOOP:  cpu time   13.32: real time   13.33

 eigenvalue-minimisations  :  1116
 total energy-change (2. order) : 0.2938472E+03  (-0.1524453E+04)
 number of electron      48.0000000 magnetization       6.0000000
 augmentation part       48.0000000 magnetization       6.0000000

 Free energy of the ion-electron system (eV)
  ---------------------------------------------------
  alpha Z        PSCENC =       116.24230980
  Ewald energy   TEWEN  =      6282.45156942
  -1/2 Hartree   DENC   =     -9876.18947711
  -exchange  EXHF       =         0.00000000
  -V(xc)+E(xc)   XCENC  =        18.26655068
  PAW double counting   =      3328.36036734    -3374.58551447
  entropy T*S    EENTRO =         0.00247669
  eigenvalues    EBANDS =       233.52991534
  atomic energy  EATOM  =      3565.76896863
  ---------------------------------------------------
  free energy    TOTEN  =       293.84716632 eV

  energy without entropy =      293.84468963  energy(sigma->0) =      293.84654715


--------------------------------------------------------------------------------------------------------




----------------------------------------- Iteration    1(   2)  ---------------------------------------


     EDDAV:  cpu time   12.96: real time   12.97
       DOS:  cpu time    0.00: real time    0.00
    --------------------------------------------
      LOOP:  cpu time   12.96: real time   12.97

 eigenvalue-minimisations  :  1116
 total energy-change (2. order) :-0.3136103E+03  (-0.2994323E+03)
 number of electron      48.0000000 magnetization       6.0000000
 augmentation part       48.0000000 magnetization       6.0000000

 Free energy of the ion-electron system (eV)
  ---------------------------------------------------
  alpha Z        PSCENC =       116.24230980
  Ewald energy   TEWEN  =      6282.45156942
  -1/2 Hartree   DENC   =     -9876.18947711
  -exchange  EXHF       =         0.00000000
  -V(xc)+E(xc)   XCENC  =        18.26655068
  PAW double counting   =      3328.36036734    -3374.58551447
  entropy T*S    EENTRO =        -0.00216875
  eigenvalues    EBANDS =       -80.07569583
  atomic energy  EATOM  =      3565.76896863
  ---------------------------------------------------
  free energy    TOTEN  =       -19.76309029 eV

  energy without entropy =      -19.76092154  energy(sigma->0) =      -19.76254810


--------------------------------------------------------------------------------------------------------




----------------------------------------- Iteration    1(   3)  ---------------------------------------


     EDDAV:  cpu time   19.15: real time   19.17
       DOS:  cpu time    0.00: real time    0.00
    --------------------------------------------
      LOOP:  cpu time   19.16: real time   19.17

 eigenvalue-minimisations  :  1886
 total energy-change (2. order) :-0.2428016E+02  (-0.2247150E+02)
 number of electron      48.0000000 magnetization       6.0000000
 augmentation part       48.0000000 magnetization       6.0000000

 Free energy of the ion-electron system (eV)
  ---------------------------------------------------
  alpha Z        PSCENC =       116.24230980
  Ewald energy   TEWEN  =      6282.45156942
  -1/2 Hartree   DENC   =     -9876.18947711
  -exchange  EXHF       =         0.00000000
  -V(xc)+E(xc)   XCENC  =        18.26655068
  PAW double counting   =      3328.36036734    -3374.58551447
  entropy T*S    EENTRO =        -0.00151345
  eigenvalues    EBANDS =      -104.35651538
  atomic energy  EATOM  =      3565.76896863
  ---------------------------------------------------
  free energy    TOTEN  =       -44.04325454 eV

  energy without entropy =      -44.04174109  energy(sigma->0) =      -44.04287618


--------------------------------------------------------------------------------------------------------




----------------------------------------- Iteration    1(   4)  ---------------------------------------


     EDDAV:  cpu time   17.40: real time   17.42
       DOS:  cpu time    0.00: real time    0.00
    --------------------------------------------
      LOOP:  cpu time   17.40: real time   17.42

 eigenvalue-minimisations  :  1669
 total energy-change (2. order) :-0.2334490E+01  (-0.2238072E+01)
 number of electron      48.0000000 magnetization       6.0000000
 augmentation part       48.0000000 magnetization       6.0000000

 Free energy of the ion-electron system (eV)
  ---------------------------------------------------
  alpha Z        PSCENC =       116.24230980
  Ewald energy   TEWEN  =      6282.45156942
  -1/2 Hartree   DENC   =     -9876.18947711
  -exchange  EXHF       =         0.00000000
  -V(xc)+E(xc)   XCENC  =        18.26655068
  PAW double counting   =      3328.36036734    -3374.58551447
  entropy T*S    EENTRO =         0.00109043
  eigenvalues    EBANDS =      -106.69360922
  atomic energy  EATOM  =      3565.76896863
  ---------------------------------------------------
  free energy    TOTEN  =       -46.37774450 eV

  energy without entropy =      -46.37883493  energy(sigma->0) =      -46.37801710


--------------------------------------------------------------------------------------------------------




----------------------------------------- Iteration    1(   5)  ---------------------------------------


     EDDAV:  cpu time   18.84: real time   18.86
       DOS:  cpu time    0.00: real time    0.00
    --------------------------------------------
      LOOP:  cpu time   18.84: real time   18.86

 eigenvalue-minimisations  :  1848
 total energy-change (2. order) :-0.2497983E+00  (-0.2401634E+00)
 number of electron      48.0000000 magnetization       6.0000000
 augmentation part       48.0000000 magnetization       6.0000000

 Free energy of the ion-electron system (eV)
  ---------------------------------------------------
  alpha Z        PSCENC =       116.24230980
  Ewald energy   TEWEN  =      6282.45156942
  -1/2 Hartree   DENC   =     -9876.18947711
  -exchange  EXHF       =         0.00000000
  -V(xc)+E(xc)   XCENC  =        18.26655068
  PAW double counting   =      3328.36036734    -3374.58551447
  entropy T*S    EENTRO =         0.00319516
  eigenvalues    EBANDS =      -106.94551224
  atomic energy  EATOM  =      3565.76896863
  ---------------------------------------------------
  free energy    TOTEN  =       -46.62754279 eV

  energy without entropy =      -46.63073794  energy(sigma->0) =      -46.62834158


--------------------------------------------------------------------------------------------------------




----------------------------------------- Iteration    1(   6)  ---------------------------------------


     EDDAV:  cpu time   16.84: real time   16.86
       DOS:  cpu time    0.00: real time    0.00
    --------------------------------------------
      LOOP:  cpu time   16.85: real time   16.86

 eigenvalue-minimisations  :  1600
 total energy-change (2. order) :-0.3151320E-01  (-0.3047880E-01)
 number of electron      48.0000000 magnetization       6.0000000
 augmentation part       48.0000000 magnetization       6.0000000

 Free energy of the ion-electron system (eV)
  ---------------------------------------------------
  alpha Z        PSCENC =       116.24230980
  Ewald energy   TEWEN  =      6282.45156942
  -1/2 Hartree   DENC   =     -9876.18947711
  -exchange  EXHF       =         0.00000000
  -V(xc)+E(xc)   XCENC  =        18.26655068
  PAW double counting   =      3328.36036734    -3374.58551447
  entropy T*S    EENTRO =         0.00304763
  eigenvalues    EBANDS =      -106.97687791
  atomic energy  EATOM  =      3565.76896863
  ---------------------------------------------------
  free energy    TOTEN  =       -46.65905599 eV

  energy without entropy =      -46.66210362  energy(sigma->0) =      -46.65981790


--------------------------------------------------------------------------------------------------------




----------------------------------------- Iteration    1(   7)  ---------------------------------------


     EDDAV:  cpu time   19.18: real time   19.19
       DOS:  cpu time    0.00: real time    0.00
    --------------------------------------------
      LOOP:  cpu time   19.18: real time   19.20

 eigenvalue-minimisations  :  1889
 total energy-change (2. order) :-0.6826769E-02  (-0.6802835E-02)
 number of electron      48.0000000 magnetization       6.0000000
 augmentation part       48.0000000 magnetization       6.0000000

 Free energy of the ion-electron system (eV)
  ---------------------------------------------------
  alpha Z        PSCENC =       116.24230980
  Ewald energy   TEWEN  =      6282.45156942
  -1/2 Hartree   DENC   =     -9876.18947711
  -exchange  EXHF       =         0.00000000
  -V(xc)+E(xc)   XCENC  =        18.26655068
  PAW double counting   =      3328.36036734    -3374.58551447
  entropy T*S    EENTRO =         0.00299663
  eigenvalues    EBANDS =      -106.98365369
  atomic energy  EATOM  =      3565.76896863
  ---------------------------------------------------
  free energy    TOTEN  =       -46.66588276 eV

  energy without entropy =      -46.66887939  energy(sigma->0) =      -46.66663192


--------------------------------------------------------------------------------------------------------




----------------------------------------- Iteration    1(   8)  ---------------------------------------


     EDDAV:  cpu time   14.76: real time   14.77
       DOS:  cpu time    0.00: real time    0.00
    --------------------------------------------
      LOOP:  cpu time   14.76: real time   14.77

 eigenvalue-minimisations  :  1337
 total energy-change (2. order) :-0.2275375E-02  (-0.2250404E-02)
 number of electron      48.0000000 magnetization       6.0000000
 augmentation part       48.0000000 magnetization       6.0000000

 Free energy of the ion-electron system (eV)
  ---------------------------------------------------
  alpha Z        PSCENC =       116.24230980
  Ewald energy   TEWEN  =      6282.45156942
  -1/2 Hartree   DENC   =     -9876.18947711
  -exchange  EXHF       =         0.00000000
  -V(xc)+E(xc)   XCENC  =        18.26655068
  PAW double counting   =      3328.36036734    -3374.58551447
  entropy T*S    EENTRO =         0.00279281
  eigenvalues    EBANDS =      -106.98572524
  atomic energy  EATOM  =      3565.76896863
  ---------------------------------------------------
  free energy    TOTEN  =       -46.66815813 eV

  energy without entropy =      -46.67095094  energy(sigma->0) =      -46.66885634


--------------------------------------------------------------------------------------------------------




----------------------------------------- Iteration    1(   9)  ---------------------------------------


     EDDAV:  cpu time   14.36: real time   14.38
       DOS:  cpu time    0.00: real time    0.00
    --------------------------------------------
      LOOP:  cpu time   14.37: real time   14.38

 eigenvalue-minimisations  :  1287
 total energy-change (2. order) :-0.5514880E-03  (-0.5495969E-03)
 number of electron      48.0000000 magnetization       6.0000000
 augmentation part       48.0000000 magnetization       6.0000000

 Free energy of the ion-electron system (eV)
  ---------------------------------------------------
  alpha Z        PSCENC =       116.24230980
  Ewald energy   TEWEN  =      6282.45156942
  -1/2 Hartree   DENC   =     -9876.18947711
  -exchange  EXHF       =         0.00000000
  -V(xc)+E(xc)   XCENC  =        18.26655068
  PAW double counting   =      3328.36036734    -3374.58551447
  entropy T*S    EENTRO =         0.00275833
  eigenvalues    EBANDS =      -106.98624225
  atomic energy  EATOM  =      3565.76896863
  ---------------------------------------------------
  free energy    TOTEN  =       -46.66870962 eV

  energy without entropy =      -46.67146795  energy(sigma->0) =      -46.66939920


--------------------------------------------------------------------------------------------------------




----------------------------------------- Iteration    1(  10)  ---------------------------------------


     EDDAV:  cpu time   12.16: real time   12.17
       DOS:  cpu time    0.00: real time    0.00
    CHARGE:  cpu time    1.85: real time    1.85
    MIXING:  cpu time    0.00: real time    0.01
    --------------------------------------------
      LOOP:  cpu time   14.02: real time   14.03

 eigenvalue-minimisations  :  1011
 total energy-change (2. order) :-0.1425032E-03  (-0.1428686E-03)
 number of electron      48.0000113 magnetization       6.0453235
 augmentation part       21.7530404 magnetization       4.0302318

 Broyden mixing:
  rms(total) = 0.23426E+01    rms(broyden)= 0.23422E+01
  rms(prec ) = 0.26459E+01
  weight for this iteration     100.00

 Free energy of the ion-electron system (eV)
  ---------------------------------------------------
  alpha Z        PSCENC =       116.24230980
  Ewald energy   TEWEN  =      6282.45156942
  -1/2 Hartree   DENC   =     -9876.18947711
  -exchange  EXHF       =         0.00000000
  -V(xc)+E(xc)   XCENC  =        18.26655068
  PAW double counting   =      3328.36036734    -3374.58551447
  entropy T*S    EENTRO =         0.00279313
  eigenvalues    EBANDS =      -106.98641956
  atomic energy  EATOM  =      3565.76896863
  ---------------------------------------------------
  free energy    TOTEN  =       -46.66885213 eV

  energy without entropy =      -46.67164526  energy(sigma->0) =      -46.66955041


--------------------------------------------------------------------------------------------------------




----------------------------------------- Iteration    1(  11)  ---------------------------------------


    POTLOK:  cpu time    0.30: real time    0.30
    SETDIJ:  cpu time    0.06: real time    0.06
    EDDIAG:  cpu time    3.67: real time    3.67
  RMM-DIIS:  cpu time   12.06: real time   12.07
    ORTHCH:  cpu time    0.09: real time    0.09
       DOS:  cpu time    0.00: real time    0.00
    CHARGE:  cpu time    1.85: real time    1.85
    MIXING:  cpu time    0.01: real time    0.01
    --------------------------------------------
      LOOP:  cpu time   18.03: real time   18.04

 eigenvalue-minimisations  :  1302
 total energy-change (2. order) :-0.3042286E+02  (-0.2127648E+02)
 number of electron      48.0000153 magnetization       5.9562985
 augmentation part       26.3756024 magnetization       5.3779240

 Broyden mixing:
  rms(total) = 0.72948E+01    rms(broyden)= 0.72944E+01
  rms(prec ) = 0.83127E+01
  weight for this iteration     100.00

 eigenvalues of (default mixing * dielectric matrix)
  average eigenvalue GAMMA=   0.1774
  0.1774

 Free energy of the ion-electron system (eV)
  ---------------------------------------------------
  alpha Z        PSCENC =       116.24230980
  Ewald energy   TEWEN  =      6282.45156942
  -1/2 Hartree   DENC   =     -9821.13816180
  -exchange  EXHF       =         0.00000000
  -V(xc)+E(xc)   XCENC  =        13.83654400
  PAW double counting   =      3351.34714460    -3381.74374599
  entropy T*S    EENTRO =        -0.00124439
  eigenvalues    EBANDS =      -203.85509425
  atomic energy  EATOM  =      3565.76896863
  ---------------------------------------------------
  free energy    TOTEN  =       -77.09170996 eV

  energy without entropy =      -77.09046557  energy(sigma->0) =      -77.09139887


--------------------------------------------------------------------------------------------------------




----------------------------------------- Iteration    1(  12)  ---------------------------------------


    POTLOK:  cpu time    0.30: real time    0.30
    SETDIJ:  cpu time    0.06: real time    0.06
    EDDIAG:  cpu time    3.66: real time    3.67
  RMM-DIIS:  cpu time   10.61: real time   10.62
    ORTHCH:  cpu time    0.09: real time    0.09
       DOS:  cpu time    0.00: real time    0.00
    CHARGE:  cpu time    1.85: real time    1.85
    MIXING:  cpu time    0.01: real time    0.01
    --------------------------------------------
      LOOP:  cpu time   16.58: real time   16.59

 eigenvalue-minimisations  :  1122
 total energy-change (2. order) : 0.2799691E+02  (-0.5583642E+01)
 number of electron      48.0000144 magnetization       5.8940387
 augmentation part       26.9189252 magnetization       5.1347725

 Broyden mixing:
  rms(total) = 0.49344E+01    rms(broyden)= 0.49339E+01
  rms(prec ) = 0.55669E+01
  weight for this iteration     100.00

 eigenvalues of (default mixing * dielectric matrix)
  average eigenvalue GAMMA=   0.1804
  0.1804  0.1804

 Free energy of the ion-electron system (eV)
  ---------------------------------------------------
  alpha Z        PSCENC =       116.24230980
  Ewald energy   TEWEN  =      6282.45156942
  -1/2 Hartree   DENC   =     -9798.05166854
  -exchange  EXHF       =         0.00000000
  -V(xc)+E(xc)   XCENC  =        13.74912451
  PAW double counting   =      3408.08466733    -3441.60678877
  entropy T*S    EENTRO =         0.00256083
  eigenvalues    EBANDS =      -195.73554663
  atomic energy  EATOM  =      3565.76896863
  ---------------------------------------------------
  free energy    TOTEN  =       -49.09480341 eV

  energy without entropy =      -49.09736423  energy(sigma->0) =      -49.09544361


--------------------------------------------------------------------------------------------------------




----------------------------------------- Iteration    1(  13)  ---------------------------------------


    POTLOK:  cpu time    0.30: real time    0.30
    SETDIJ:  cpu time    0.06: real time    0.06
    EDDIAG:  cpu time    3.66: real time    3.67
  RMM-DIIS:  cpu time   10.90: real time   10.91
    ORTHCH:  cpu time    0.09: real time    0.09
       DOS:  cpu time    0.00: real time    0.00
    CHARGE:  cpu time    1.85: real time    1.85
    MIXING:  cpu time    0.01: real time    0.01
    --------------------------------------------
      LOOP:  cpu time   16.86: real time   16.88

 eigenvalue-minimisations  :  1160
 total energy-change (2. order) : 0.2370649E+01  (-0.5789267E+01)
 number of electron      48.0000151 magnetization       5.9706326
 augmentation part       26.5178487 magnetization       3.7007655

 Broyden mixing:
  rms(total) = 0.35199E+01    rms(broyden)= 0.35190E+01
  rms(prec ) = 0.38330E+01
  weight for this iteration     100.00

 eigenvalues of (default mixing * dielectric matrix)
  average eigenvalue GAMMA=   0.2466
  0.4725  0.1688  0.0986

 Free energy of the ion-electron system (eV)
  ---------------------------------------------------
  alpha Z        PSCENC =       116.24230980
  Ewald energy   TEWEN  =      6282.45156942
  -1/2 Hartree   DENC   =     -9804.65059638
  -exchange  EXHF       =         0.00000000
  -V(xc)+E(xc)   XCENC  =        14.01182073
  PAW double counting   =      3445.51188276    -3481.53713211
  entropy T*S    EENTRO =         0.00002650
  eigenvalues    EBANDS =      -184.52300360
  atomic energy  EATOM  =      3565.76896863
  ---------------------------------------------------
  free energy    TOTEN  =       -46.72415422 eV

  energy without entropy =      -46.72418072  energy(sigma->0) =      -46.72416085


--------------------------------------------------------------------------------------------------------




----------------------------------------- Iteration    1(  14)  ---------------------------------------


    POTLOK:  cpu time    0.30: real time    0.30
    SETDIJ:  cpu time    0.06: real time    0.06
    EDDIAG:  cpu time    3.67: real time    3.67
  RMM-DIIS:  cpu time   10.88: real time   10.89
    ORTHCH:  cpu time    0.09: real time    0.09
       DOS:  cpu time    0.00: real time    0.00
    CHARGE:  cpu time    1.86: real time    1.86
    MIXING:  cpu time    0.00: real time    0.01
    --------------------------------------------
      LOOP:  cpu time   16.85: real time   16.87

 eigenvalue-minimisations  :  1145
 total energy-change (2. order) : 0.4719157E+01  (-0.9690415E+00)
 number of electron      48.0000141 magnetization       6.2015141
 augmentation part       25.6336585 magnetization       3.4742435

 Broyden mixing:
  rms(total) = 0.25275E+01    rms(broyden)= 0.25273E+01
  rms(prec ) = 0.28201E+01
  weight for this iteration     100.00

 eigenvalues of (default mixing * dielectric matrix)
  average eigenvalue GAMMA=   0.3212
  0.4699  0.4699  0.2244  0.1207

 Free energy of the ion-electron system (eV)
  ---------------------------------------------------
  alpha Z        PSCENC =       116.24230980
  Ewald energy   TEWEN  =      6282.45156942
  -1/2 Hartree   DENC   =     -9832.42380792
  -exchange  EXHF       =         0.00000000
  -V(xc)+E(xc)   XCENC  =        15.64999039
  PAW double counting   =      3554.03197510    -3597.13772244
  entropy T*S    EENTRO =        -0.00065781
  eigenvalues    EBANDS =      -146.58762216
  atomic energy  EATOM  =      3565.76896863
  ---------------------------------------------------
  free energy    TOTEN  =       -42.00499699 eV

  energy without entropy =      -42.00433917  energy(sigma->0) =      -42.00483253


--------------------------------------------------------------------------------------------------------




----------------------------------------- Iteration    1(  15)  ---------------------------------------


    POTLOK:  cpu time    0.30: real time    0.30
    SETDIJ:  cpu time    0.06: real time    0.06
    EDDIAG:  cpu time    3.70: real time    3.70
  RMM-DIIS:  cpu time   11.30: real time   11.31
    ORTHCH:  cpu time    0.09: real time    0.09
       DOS:  cpu time    0.00: real time    0.00
    CHARGE:  cpu time    1.87: real time    1.87
    MIXING:  cpu time    0.01: real time    0.01
    --------------------------------------------
      LOOP:  cpu time   17.33: real time   17.35

 eigenvalue-minimisations  :  1186
 total energy-change (2. order) :-0.2390171E+00  (-0.8176741E+00)
 number of electron      48.0000148 magnetization       6.2666587
 augmentation part       25.2547145 magnetization       4.8244516

 Broyden mixing:
  rms(total) = 0.30217E+01    rms(broyden)= 0.30213E+01
  rms(prec ) = 0.40780E+01
  weight for this iteration     100.00

 eigenvalues of (default mixing * dielectric matrix)
  average eigenvalue GAMMA=   0.3143
  0.5519  0.5519  0.1107  0.1786  0.1786

 Free energy of the ion-electron system (eV)
  ---------------------------------------------------
  alpha Z        PSCENC =       116.24230980
  Ewald energy   TEWEN  =      6282.45156942
  -1/2 Hartree   DENC   =     -9849.93600057
  -exchange  EXHF       =         0.00000000
  -V(xc)+E(xc)   XCENC  =        17.09434724
  PAW double counting   =      3611.13103505    -3657.05654477
  entropy T*S    EENTRO =         0.00187845
  eigenvalues    EBANDS =      -127.94157739
  atomic energy  EATOM  =      3565.76896863
  ---------------------------------------------------
  free energy    TOTEN  =       -42.24401413 eV

  energy without entropy =      -42.24589258  energy(sigma->0) =      -42.24448374


--------------------------------------------------------------------------------------------------------




----------------------------------------- Iteration    1(  16)  ---------------------------------------


    POTLOK:  cpu time    0.30: real time    0.30
    SETDIJ:  cpu time    0.06: real time    0.06
    EDDIAG:  cpu time    3.69: real time    3.69
  RMM-DIIS:  cpu time   11.51: real time   11.53
    ORTHCH:  cpu time    0.09: real time    0.09
       DOS:  cpu time    0.00: real time    0.00
    CHARGE:  cpu time    1.86: real time    1.86
    MIXING:  cpu time    0.01: real time    0.01
    --------------------------------------------
      LOOP:  cpu time   17.52: real time   17.54

 eigenvalue-minimisations  :  1212
 total energy-change (2. order) : 0.8543352E+00  (-0.6433989E+00)
 number of electron      48.0000123 magnetization       6.3334478
 augmentation part       25.0297505 magnetization       5.0567074

 Broyden mixing:
  rms(total) = 0.24927E+01    rms(broyden)= 0.24922E+01
  rms(prec ) = 0.35124E+01
  weight for this iteration     100.00

 eigenvalues of (default mixing * dielectric matrix)
  average eigenvalue GAMMA=   0.3618
  0.7275  0.7275  0.2958  0.2420  0.1181  0.0595

 Free energy of the ion-electron system (eV)
  ---------------------------------------------------
  alpha Z        PSCENC =       116.24230980
  Ewald energy   TEWEN  =      6282.45156942
  -1/2 Hartree   DENC   =     -9852.74099258
  -exchange  EXHF       =         0.00000000
  -V(xc)+E(xc)   XCENC  =        17.38960838
  PAW double counting   =      3627.39166744    -3674.03839289
  entropy T*S    EENTRO =         0.00485218
  eigenvalues    EBANDS =      -123.85926935
  atomic energy  EATOM  =      3565.76896863
  ---------------------------------------------------
  free energy    TOTEN  =       -41.38967896 eV

  energy without entropy =      -41.39453114  energy(sigma->0) =      -41.39089200


--------------------------------------------------------------------------------------------------------




----------------------------------------- Iteration    1(  17)  ---------------------------------------


    POTLOK:  cpu time    0.30: real time    0.30
    SETDIJ:  cpu time    0.06: real time    0.06
    EDDIAG:  cpu time    3.68: real time    3.69
  RMM-DIIS:  cpu time   11.55: real time   11.57
    ORTHCH:  cpu time    0.09: real time    0.09
       DOS:  cpu time    0.00: real time    0.00
    CHARGE:  cpu time    1.86: real time    1.86
    MIXING:  cpu time    0.01: real time    0.01
    --------------------------------------------
      LOOP:  cpu time   17.55: real time   17.57

 eigenvalue-minimisations  :  1213
 total energy-change (2. order) : 0.2141965E+00  (-0.6897392E+00)
 number of electron      48.0000110 magnetization       6.4185236
 augmentation part       25.2451049 magnetization       4.0997023

 Broyden mixing:
  rms(total) = 0.22056E+01    rms(broyden)= 0.22051E+01
  rms(prec ) = 0.26047E+01
  weight for this iteration     100.00

 eigenvalues of (default mixing * dielectric matrix)
  average eigenvalue GAMMA=   0.3480
  0.7705  0.7705  0.4221  0.1970  0.1251  0.0938  0.0571

 Free energy of the ion-electron system (eV)
  ---------------------------------------------------
  alpha Z        PSCENC =       116.24230980
  Ewald energy   TEWEN  =      6282.45156942
  -1/2 Hartree   DENC   =     -9848.03961148
  -exchange  EXHF       =         0.00000000
  -V(xc)+E(xc)   XCENC  =        17.23735627
  PAW double counting   =      3641.18718304    -3688.06261518
  entropy T*S    EENTRO =        -0.00080323
  eigenvalues    EBANDS =      -127.95983974
  atomic energy  EATOM  =      3565.76896863
  ---------------------------------------------------
  free energy    TOTEN  =       -41.17548247 eV

  energy without entropy =      -41.17467924  energy(sigma->0) =      -41.17528166


--------------------------------------------------------------------------------------------------------




----------------------------------------- Iteration    1(  18)  ---------------------------------------


    POTLOK:  cpu time    0.30: real time    0.30
    SETDIJ:  cpu time    0.06: real time    0.06
    EDDIAG:  cpu time    3.70: real time    3.70
  RMM-DIIS:  cpu time   11.54: real time   11.55
    ORTHCH:  cpu time    0.10: real time    0.09
       DOS:  cpu time    0.00: real time    0.00
    CHARGE:  cpu time    1.88: real time    1.88
    MIXING:  cpu time    0.01: real time    0.01
    --------------------------------------------
      LOOP:  cpu time   17.57: real time   17.59

 eigenvalue-minimisations  :  1211
 total energy-change (2. order) : 0.7302090E+00  (-0.2902590E+00)
 number of electron      48.0000126 magnetization       6.6125086
 augmentation part       25.3083426 magnetization       4.0321402

 Broyden mixing:
  rms(total) = 0.18588E+01    rms(broyden)= 0.18586E+01
  rms(prec ) = 0.21674E+01
  weight for this iteration     100.00

 eigenvalues of (default mixing * dielectric matrix)
  average eigenvalue GAMMA=   0.3339
  0.7958  0.7626  0.5559  0.1774  0.1286  0.0979  0.0979  0.0550

 Free energy of the ion-electron system (eV)
  ---------------------------------------------------
  alpha Z        PSCENC =       116.24230980
  Ewald energy   TEWEN  =      6282.45156942
  -1/2 Hartree   DENC   =     -9848.78515467
  -exchange  EXHF       =         0.00000000
  -V(xc)+E(xc)   XCENC  =        17.46584037
  PAW double counting   =      3654.49553210    -3701.73706535
  entropy T*S    EENTRO =        -0.00016984
  eigenvalues    EBANDS =      -126.34710389
  atomic energy  EATOM  =      3565.76896863
  ---------------------------------------------------
  free energy    TOTEN  =       -40.44527343 eV

  energy without entropy =      -40.44510359  energy(sigma->0) =      -40.44523097


--------------------------------------------------------------------------------------------------------




----------------------------------------- Iteration    1(  19)  ---------------------------------------


    POTLOK:  cpu time    0.30: real time    0.30
    SETDIJ:  cpu time    0.06: real time    0.06
    EDDIAG:  cpu time    3.72: real time    3.73
  RMM-DIIS:  cpu time   12.51: real time   12.53
    ORTHCH:  cpu time    0.09: real time    0.09
       DOS:  cpu time    0.00: real time    0.00
    CHARGE:  cpu time    1.86: real time    1.86
    MIXING:  cpu time    0.01: real time    0.01
    --------------------------------------------
      LOOP:  cpu time   18.56: real time   18.59

 eigenvalue-minimisations  :  1326
 total energy-change (2. order) : 0.5233114E+00  (-0.9924306E-01)
 number of electron      48.0000123 magnetization       6.6027523
 augmentation part       25.3258883 magnetization       4.0676948

 Broyden mixing:
  rms(total) = 0.16329E+01    rms(broyden)= 0.16329E+01
  rms(prec ) = 0.18797E+01
  weight for this iteration     100.00

 eigenvalues of (default mixing * dielectric matrix)
  average eigenvalue GAMMA=   0.2991
  0.8140  0.7428  0.5591  0.1753  0.1300  0.1011  0.1011  0.0552  0.0130

 Free energy of the ion-electron system (eV)
  ---------------------------------------------------
  alpha Z        PSCENC =       116.24230980
  Ewald energy   TEWEN  =      6282.45156942
  -1/2 Hartree   DENC   =     -9852.11519454
  -exchange  EXHF       =         0.00000000
  -V(xc)+E(xc)   XCENC  =        18.02303975
  PAW double counting   =      3678.38617620    -3726.27091336
  entropy T*S    EENTRO =         0.00067821
  eigenvalues    EBANDS =      -122.40859611
  atomic energy  EATOM  =      3565.76896863
  ---------------------------------------------------
  free energy    TOTEN  =       -39.92196198 eV

  energy without entropy =      -39.92264019  energy(sigma->0) =      -39.92213154


--------------------------------------------------------------------------------------------------------




----------------------------------------- Iteration    1(  20)  ---------------------------------------


    POTLOK:  cpu time    0.30: real time    0.30
    SETDIJ:  cpu time    0.06: real time    0.06
    EDDIAG:  cpu time    3.70: real time    3.70
  RMM-DIIS:  cpu time   15.06: real time   15.08
    ORTHCH:  cpu time    0.09: real time    0.09
       DOS:  cpu time    0.00: real time    0.00
    CHARGE:  cpu time    1.86: real time    1.86
    MIXING:  cpu time    0.01: real time    0.01
    --------------------------------------------
      LOOP:  cpu time   21.08: real time   21.11

 eigenvalue-minimisations  :  1640
 total energy-change (2. order) :-0.2323863E-01  (-0.4160445E-01)
 number of electron      48.0000123 magnetization       6.6476582
 augmentation part       25.3690765 magnetization       4.1753235

 Broyden mixing:
  rms(total) = 0.16641E+01    rms(broyden)= 0.16641E+01
  rms(prec ) = 0.19181E+01
  weight for this iteration     100.00

 eigenvalues of (default mixing * dielectric matrix)
  average eigenvalue GAMMA=   0.3412
  1.0155  0.6014  0.6014  0.2757  0.2757  0.1829  0.1829  0.1166  0.1045  0.0556

 Free energy of the ion-electron system (eV)
  ---------------------------------------------------
  alpha Z        PSCENC =       116.24230980
  Ewald energy   TEWEN  =      6282.45156942
  -1/2 Hartree   DENC   =     -9852.03501600
  -exchange  EXHF       =         0.00000000
  -V(xc)+E(xc)   XCENC  =        18.02071607
  PAW double counting   =      3677.99894247    -3725.85457655
  entropy T*S    EENTRO =        -0.00032252
  eigenvalues    EBANDS =      -122.53779195
  atomic energy  EATOM  =      3565.76896863
  ---------------------------------------------------
  free energy    TOTEN  =       -39.94520062 eV

  energy without entropy =      -39.94487810  energy(sigma->0) =      -39.94511999


--------------------------------------------------------------------------------------------------------




----------------------------------------- Iteration    1(  21)  ---------------------------------------


    POTLOK:  cpu time    0.30: real time    0.30
    SETDIJ:  cpu time    0.06: real time    0.06
    EDDIAG:  cpu time    3.72: real time    3.72
  RMM-DIIS:  cpu time   12.46: real time   12.48
    ORTHCH:  cpu time    0.09: real time    0.09
       DOS:  cpu time    0.00: real time    0.00
    CHARGE:  cpu time    1.86: real time    1.86
    MIXING:  cpu time    0.01: real time    0.01
    --------------------------------------------
      LOOP:  cpu time   18.50: real time   18.53

 eigenvalue-minimisations  :  1322
 total energy-change (2. order) :-0.4123640E-02  (-0.1610760E-01)
 number of electron      48.0000127 magnetization       6.6751455
 augmentation part       25.4052000 magnetization       4.2068267

 Broyden mixing:
  rms(total) = 0.16900E+01    rms(broyden)= 0.16900E+01
  rms(prec ) = 0.19503E+01
  weight for this iteration     100.00

 eigenvalues of (default mixing * dielectric matrix)
  average eigenvalue GAMMA=   0.3360
  1.0535  0.5925  0.5925  0.3621  0.3621  0.1805  0.1805  0.0556  0.1074  0.1074
  0.1012

 Free energy of the ion-electron system (eV)
  ---------------------------------------------------
  alpha Z        PSCENC =       116.24230980
  Ewald energy   TEWEN  =      6282.45156942
  -1/2 Hartree   DENC   =     -9851.29498685
  -exchange  EXHF       =         0.00000000
  -V(xc)+E(xc)   XCENC  =        18.05609914
  PAW double counting   =      3678.68695557    -3726.53649169
  entropy T*S    EENTRO =        -0.00015671
  eigenvalues    EBANDS =      -123.32359157
  atomic energy  EATOM  =      3565.76896863
  ---------------------------------------------------
  free energy    TOTEN  =       -39.94932426 eV

  energy without entropy =      -39.94916754  energy(sigma->0) =      -39.94928508


--------------------------------------------------------------------------------------------------------




----------------------------------------- Iteration    1(  22)  ---------------------------------------


    POTLOK:  cpu time    0.30: real time    0.30
    SETDIJ:  cpu time    0.06: real time    0.06
    EDDIAG:  cpu time    3.70: real time    3.70
  RMM-DIIS:  cpu time   11.48: real time   11.49
    ORTHCH:  cpu time    0.09: real time    0.09
       DOS:  cpu time    0.00: real time    0.00
    CHARGE:  cpu time    1.86: real time    1.86
    MIXING:  cpu time    0.02: real time    0.01
    --------------------------------------------
      LOOP:  cpu time   17.51: real time   17.53

 eigenvalue-minimisations  :  1203
 total energy-change (2. order) : 0.9031821E-01  (-0.1375636E-01)
 number of electron      48.0000124 magnetization       6.7303874
 augmentation part       25.4426847 magnetization       4.2443134

 Broyden mixing:
  rms(total) = 0.16903E+01    rms(broyden)= 0.16903E+01
  rms(prec ) = 0.19598E+01
  weight for this iteration     100.00

 eigenvalues of (default mixing * dielectric matrix)
  average eigenvalue GAMMA=   0.3270
  1.0570  0.5922  0.5922  0.4184  0.4184  0.1620  0.1620  0.0556  0.1258  0.1258
  0.1072  0.1072

 Free energy of the ion-electron system (eV)
  ---------------------------------------------------
  alpha Z        PSCENC =       116.24230980
  Ewald energy   TEWEN  =      6282.45156942
  -1/2 Hartree   DENC   =     -9850.07310673
  -exchange  EXHF       =         0.00000000
  -V(xc)+E(xc)   XCENC  =        18.02216455
  PAW double counting   =      3678.49009305    -3726.33073137
  entropy T*S    EENTRO =         0.00008662
  eigenvalues    EBANDS =      -124.43036002
  atomic energy  EATOM  =      3565.76896863
  ---------------------------------------------------
  free energy    TOTEN  =       -39.85900605 eV

  energy without entropy =      -39.85909267  energy(sigma->0) =      -39.85902770


--------------------------------------------------------------------------------------------------------




----------------------------------------- Iteration    1(  23)  ---------------------------------------


    POTLOK:  cpu time    0.30: real time    0.30
    SETDIJ:  cpu time    0.06: real time    0.06
    EDDIAG:  cpu time    3.70: real time    3.70
  RMM-DIIS:  cpu time   13.99: real time   14.01
    ORTHCH:  cpu time    0.09: real time    0.09
       DOS:  cpu time    0.00: real time    0.00
    CHARGE:  cpu time    1.88: real time    1.87
    MIXING:  cpu time    0.01: real time    0.02
    --------------------------------------------
      LOOP:  cpu time   20.02: real time   20.05

 eigenvalue-minimisations  :  1510
 total energy-change (2. order) : 0.4158981E-01  (-0.1131560E-01)
 number of electron      48.0000124 magnetization       6.7683586
 augmentation part       25.4715816 magnetization       4.2789733

 Broyden mixing:
  rms(total) = 0.16638E+01    rms(broyden)= 0.16637E+01
  rms(prec ) = 0.19307E+01
  weight for this iteration     100.00

 eigenvalues of (default mixing * dielectric matrix)
  average eigenvalue GAMMA=   0.3095
  1.0559  0.5933  0.5933  0.4233  0.4233  0.1733  0.1733  0.1095  0.1095  0.0556
  0.1078  0.1078  0.0973

 Free energy of the ion-electron system (eV)
  ---------------------------------------------------
  alpha Z        PSCENC =       116.24230980
  Ewald energy   TEWEN  =      6282.45156942
  -1/2 Hartree   DENC   =     -9849.69036572
  -exchange  EXHF       =         0.00000000
  -V(xc)+E(xc)   XCENC  =        18.00968257
  PAW double counting   =      3679.28334946    -3727.20745116
  entropy T*S    EENTRO =        -0.00123581
  eigenvalues    EBANDS =      -124.67424345
  atomic energy  EATOM  =      3565.76896863
  ---------------------------------------------------
  free energy    TOTEN  =       -39.81741624 eV

  energy without entropy =      -39.81618043  energy(sigma->0) =      -39.81710729


--------------------------------------------------------------------------------------------------------




----------------------------------------- Iteration    1(  24)  ---------------------------------------


    POTLOK:  cpu time    0.30: real time    0.30
    SETDIJ:  cpu time    0.06: real time    0.06
    EDDIAG:  cpu time    3.70: real time    3.71
  RMM-DIIS:  cpu time   12.70: real time   12.71
    ORTHCH:  cpu time    0.09: real time    0.09
       DOS:  cpu time    0.00: real time    0.00
    CHARGE:  cpu time    1.86: real time    1.86
    MIXING:  cpu time    0.02: real time    0.02
    --------------------------------------------
      LOOP:  cpu time   18.74: real time   18.76

 eigenvalue-minimisations  :  1351
 total energy-change (2. order) :-0.1007812E-02  (-0.4862347E-02)
 number of electron      48.0000125 magnetization       6.9847343
 augmentation part       25.4689995 magnetization       4.4995242

 Broyden mixing:
  rms(total) = 0.16467E+01    rms(broyden)= 0.16466E+01
  rms(prec ) = 0.19096E+01
  weight for this iteration     100.00

 eigenvalues of (default mixing * dielectric matrix)
  average eigenvalue GAMMA=   0.5063
  1.2692  1.2692  1.1423  0.6495  0.6495  0.4655  0.4249  0.4249  0.2037  0.2037
  0.0556  0.1080  0.1080  0.1142

 Free energy of the ion-electron system (eV)
  ---------------------------------------------------
  alpha Z        PSCENC =       116.24230980
  Ewald energy   TEWEN  =      6282.45156942
  -1/2 Hartree   DENC   =     -9849.77015856
  -exchange  EXHF       =         0.00000000
  -V(xc)+E(xc)   XCENC  =        17.99310302
  PAW double counting   =      3678.64651734    -3726.60837314
  entropy T*S    EENTRO =        -0.00368560
  eigenvalues    EBANDS =      -124.53867498
  atomic energy  EATOM  =      3565.76896863
  ---------------------------------------------------
  free energy    TOTEN  =       -39.81842405 eV

  energy without entropy =      -39.81473846  energy(sigma->0) =      -39.81750265


--------------------------------------------------------------------------------------------------------




----------------------------------------- Iteration    1(  25)  ---------------------------------------


    POTLOK:  cpu time    0.30: real time    0.30
    SETDIJ:  cpu time    0.06: real time    0.06
    EDDIAG:  cpu time    3.70: real time    3.71
  RMM-DIIS:  cpu time   12.14: real time   12.16
    ORTHCH:  cpu time    0.09: real time    0.09
       DOS:  cpu time    0.00: real time    0.00
    CHARGE:  cpu time    1.86: real time    1.86
    MIXING:  cpu time    0.02: real time    0.02
    --------------------------------------------
      LOOP:  cpu time   18.18: real time   18.20

 eigenvalue-minimisations  :  1285
 total energy-change (2. order) : 0.2170273E-01  (-0.3963954E-01)
 number of electron      48.0000129 magnetization       7.3098105
 augmentation part       25.5081942 magnetization       4.8583304

 Broyden mixing:
  rms(total) = 0.15901E+01    rms(broyden)= 0.15901E+01
  rms(prec ) = 0.18546E+01
  weight for this iteration     100.00

 eigenvalues of (default mixing * dielectric matrix)
  average eigenvalue GAMMA=   0.5926
  1.6919  1.6919  1.3250  0.7583  0.7583  0.5477  0.5477  0.3874  0.3874  0.2037
  0.2037  0.0556  0.1080  0.1080  0.1142

 Free energy of the ion-electron system (eV)
  ---------------------------------------------------
  alpha Z        PSCENC =       116.24230980
  Ewald energy   TEWEN  =      6282.45156942
  -1/2 Hartree   DENC   =     -9849.64665196
  -exchange  EXHF       =         0.00000000
  -V(xc)+E(xc)   XCENC  =        18.19714652
  PAW double counting   =      3679.85219305    -3727.90278534
  entropy T*S    EENTRO =        -0.00973198
  eigenvalues    EBANDS =      -124.74973948
  atomic energy  EATOM  =      3565.76896863
  ---------------------------------------------------
  free energy    TOTEN  =       -39.79672132 eV

  energy without entropy =      -39.78698934  energy(sigma->0) =      -39.79428833


--------------------------------------------------------------------------------------------------------




----------------------------------------- Iteration    1(  26)  ---------------------------------------


    POTLOK:  cpu time    0.30: real time    0.30
    SETDIJ:  cpu time    0.06: real time    0.06
    EDDIAG:  cpu time    3.71: real time    3.72
  RMM-DIIS:  cpu time   13.49: real time   13.50
    ORTHCH:  cpu time    0.09: real time    0.09
       DOS:  cpu time    0.00: real time    0.00
    CHARGE:  cpu time    1.86: real time    1.86
    MIXING:  cpu time    0.02: real time    0.02
    --------------------------------------------
      LOOP:  cpu time   19.53: real time   19.56

 eigenvalue-minimisations  :  1445
 total energy-change (2. order) : 0.2633053E+00  (-0.9267769E-01)
 number of electron      48.0000127 magnetization       7.4543455
 augmentation part       25.3868791 magnetization       5.1793120

 Broyden mixing:
  rms(total) = 0.11622E+01    rms(broyden)= 0.11621E+01
  rms(prec ) = 0.13289E+01
  weight for this iteration     100.00

 eigenvalues of (default mixing * dielectric matrix)
  average eigenvalue GAMMA=   0.5910
  1.8219  1.8219  1.3836  0.7772  0.7772  0.5333  0.5333  0.3781  0.3781  0.2587
  0.2036  0.2036  0.0556  0.1142  0.1080  0.1080

 Free energy of the ion-electron system (eV)
  ---------------------------------------------------
  alpha Z        PSCENC =       116.24230980
  Ewald energy   TEWEN  =      6282.45156942
  -1/2 Hartree   DENC   =     -9855.44043717
  -exchange  EXHF       =         0.00000000
  -V(xc)+E(xc)   XCENC  =        18.59859792
  PAW double counting   =      3695.07083376    -3743.66653225
  entropy T*S    EENTRO =        -0.00560341
  eigenvalues    EBANDS =      -118.55312268
  atomic energy  EATOM  =      3565.76896863
  ---------------------------------------------------
  free energy    TOTEN  =       -39.53341597 eV

  energy without entropy =      -39.52781256  energy(sigma->0) =      -39.53201512


--------------------------------------------------------------------------------------------------------




----------------------------------------- Iteration    1(  27)  ---------------------------------------


    POTLOK:  cpu time    0.30: real time    0.30
    SETDIJ:  cpu time    0.06: real time    0.06
    EDDIAG:  cpu time    3.70: real time    3.70
  RMM-DIIS:  cpu time   14.54: real time   14.55
    ORTHCH:  cpu time    0.09: real time    0.09
       DOS:  cpu time    0.00: real time    0.00
    CHARGE:  cpu time    1.86: real time    1.86
    MIXING:  cpu time    0.02: real time    0.02
    --------------------------------------------
      LOOP:  cpu time   20.57: real time   20.59

 eigenvalue-minimisations  :  1575
 total energy-change (2. order) :-0.1253190E+00  (-0.5836984E-01)
 number of electron      48.0000127 magnetization       7.7860985
 augmentation part       25.3521116 magnetization       5.5356121

 Broyden mixing:
  rms(total) = 0.10870E+01    rms(broyden)= 0.10869E+01
  rms(prec ) = 0.12385E+01
  weight for this iteration     100.00

 eigenvalues of (default mixing * dielectric matrix)
  average eigenvalue GAMMA=   0.6563
  2.1146  2.1146  1.4683  0.7746  0.7746  0.6889  0.5798  0.5798  0.4873  0.3909
  0.3909  0.2037  0.2037  0.0556  0.1080  0.1080  0.1142

 Free energy of the ion-electron system (eV)
  ---------------------------------------------------
  alpha Z        PSCENC =       116.24230980
  Ewald energy   TEWEN  =      6282.45156942
  -1/2 Hartree   DENC   =     -9857.87690603
  -exchange  EXHF       =         0.00000000
  -V(xc)+E(xc)   XCENC  =        18.93237901
  PAW double counting   =      3700.91822727    -3749.64588903
  entropy T*S    EENTRO =        -0.00664871
  eigenvalues    EBANDS =      -116.44274535
  atomic energy  EATOM  =      3565.76896863
  ---------------------------------------------------
  free energy    TOTEN  =       -39.65873498 eV

  energy without entropy =      -39.65208627  energy(sigma->0) =      -39.65707281


--------------------------------------------------------------------------------------------------------




----------------------------------------- Iteration    1(  28)  ---------------------------------------


    POTLOK:  cpu time    0.30: real time    0.30
    SETDIJ:  cpu time    0.06: real time    0.06
    EDDIAG:  cpu time    3.71: real time    3.71
  RMM-DIIS:  cpu time   12.82: real time   12.84
    ORTHCH:  cpu time    0.09: real time    0.09
       DOS:  cpu time    0.00: real time    0.00
    CHARGE:  cpu time    1.86: real time    1.87
    MIXING:  cpu time    0.02: real time    0.02
    --------------------------------------------
      LOOP:  cpu time   18.88: real time   18.90

 eigenvalue-minimisations  :  1367
 total energy-change (2. order) :-0.2298583E-01  (-0.1091565E+00)
 number of electron      48.0000127 magnetization       7.9825887
 augmentation part       25.2142331 magnetization       5.8869202

 Broyden mixing:
  rms(total) = 0.83793E+00    rms(broyden)= 0.83781E+00
  rms(prec ) = 0.96957E+00
  weight for this iteration     100.00

 eigenvalues of (default mixing * dielectric matrix)
  average eigenvalue GAMMA=   0.6729
  2.1760  2.1760  1.3586  0.9066  0.9066  0.7436  0.7436  0.6202  0.3878  0.3878
  0.4557  0.4557  0.2037  0.2037  0.0556  0.1080  0.1080  0.1142

 Free energy of the ion-electron system (eV)
  ---------------------------------------------------
  alpha Z        PSCENC =       116.24230980
  Ewald energy   TEWEN  =      6282.45156942
  -1/2 Hartree   DENC   =     -9864.75051220
  -exchange  EXHF       =         0.00000000
  -V(xc)+E(xc)   XCENC  =        19.95563659
  PAW double counting   =      3717.93510384    -3767.24158105
  entropy T*S    EENTRO =        -0.00307360
  eigenvalues    EBANDS =      -110.04014225
  atomic energy  EATOM  =      3565.76896863
  ---------------------------------------------------
  free energy    TOTEN  =       -39.68172081 eV

  energy without entropy =      -39.67864721  energy(sigma->0) =      -39.68095241


--------------------------------------------------------------------------------------------------------




----------------------------------------- Iteration    1(  29)  ---------------------------------------


    POTLOK:  cpu time    0.30: real time    0.31
    SETDIJ:  cpu time    0.06: real time    0.06
    EDDIAG:  cpu time    3.72: real time    3.72
  RMM-DIIS:  cpu time   14.08: real time   14.10
    ORTHCH:  cpu time    0.09: real time    0.09
       DOS:  cpu time    0.00: real time    0.00
    CHARGE:  cpu time    1.86: real time    1.86
    MIXING:  cpu time    0.02: real time    0.02
    --------------------------------------------
      LOOP:  cpu time   20.14: real time   20.17

 eigenvalue-minimisations  :  1524
 total energy-change (2. order) :-0.1166019E+00  (-0.1264981E+00)
 number of electron      48.0000115 magnetization       8.0280739
 augmentation part       25.1221820 magnetization       6.1977202

 Broyden mixing:
  rms(total) = 0.72625E+00    rms(broyden)= 0.72579E+00
  rms(prec ) = 0.80482E+00
  weight for this iteration     100.00

 eigenvalues of (default mixing * dielectric matrix)
  average eigenvalue GAMMA=   0.6530
  2.1991  2.1991  1.2917  0.8994  0.8994  0.7100  0.7100  0.3536  0.6076  0.5332
  0.3880  0.3880  0.4344  0.2037  0.2037  0.0556  0.1080  0.1080  0.1142

 Free energy of the ion-electron system (eV)
  ---------------------------------------------------
  alpha Z        PSCENC =       116.24230980
  Ewald energy   TEWEN  =      6282.45156942
  -1/2 Hartree   DENC   =     -9865.25520739
  -exchange  EXHF       =         0.00000000
  -V(xc)+E(xc)   XCENC  =        20.29841107
  PAW double counting   =      3721.51004115    -3771.05601474
  entropy T*S    EENTRO =         0.00061145
  eigenvalues    EBANDS =      -109.75901216
  atomic energy  EATOM  =      3565.76896863
  ---------------------------------------------------
  free energy    TOTEN  =       -39.79832276 eV

  energy without entropy =      -39.79893420  energy(sigma->0) =      -39.79847562


--------------------------------------------------------------------------------------------------------




----------------------------------------- Iteration    1(  30)  ---------------------------------------


    POTLOK:  cpu time    0.30: real time    0.30
    SETDIJ:  cpu time    0.06: real time    0.06
    EDDIAG:  cpu time    3.69: real time    3.70
  RMM-DIIS:  cpu time   13.60: real time   13.62
    ORTHCH:  cpu time    0.09: real time    0.09
       DOS:  cpu time    0.00: real time    0.00
    CHARGE:  cpu time    1.86: real time    1.87
    MIXING:  cpu time    0.02: real time    0.02
    --------------------------------------------
      LOOP:  cpu time   19.64: real time   19.66

 eigenvalue-minimisations  :  1462
 total energy-change (2. order) :-0.9223796E-01  (-0.3786217E-01)
 number of electron      48.0000114 magnetization       7.8879507
 augmentation part       25.1050750 magnetization       6.0552374

 Broyden mixing:
  rms(total) = 0.83539E+00    rms(broyden)= 0.83534E+00
  rms(prec ) = 0.92819E+00
  weight for this iteration     100.00

 eigenvalues of (default mixing * dielectric matrix)
  average eigenvalue GAMMA=   0.7012
  2.3445  2.3445  1.5410  1.0989  1.0989  0.7560  0.7560  0.6059  0.6059  0.4553
  0.4553  0.3895  0.3895  0.3897  0.2037  0.2037  0.0556  0.1142  0.1080  0.1080

 Free energy of the ion-electron system (eV)
  ---------------------------------------------------
  alpha Z        PSCENC =       116.24230980
  Ewald energy   TEWEN  =      6282.45156942
  -1/2 Hartree   DENC   =     -9865.91721930
  -exchange  EXHF       =         0.00000000
  -V(xc)+E(xc)   XCENC  =        20.39662312
  PAW double counting   =      3719.92619208    -3769.44651031
  entropy T*S    EENTRO =         0.00032335
  eigenvalues    EBANDS =      -109.31281752
  atomic energy  EATOM  =      3565.76896863
  ---------------------------------------------------
  free energy    TOTEN  =       -39.89056072 eV

  energy without entropy =      -39.89088407  energy(sigma->0) =      -39.89064156


--------------------------------------------------------------------------------------------------------




----------------------------------------- Iteration    1(  31)  ---------------------------------------


    POTLOK:  cpu time    0.31: real time    0.31
    SETDIJ:  cpu time    0.06: real time    0.06
    EDDIAG:  cpu time    3.70: real time    3.71
  RMM-DIIS:  cpu time   11.17: real time   11.18
    ORTHCH:  cpu time    0.09: real time    0.09
       DOS:  cpu time    0.00: real time    0.00
    CHARGE:  cpu time    1.86: real time    1.87
    MIXING:  cpu time    0.02: real time    0.02
    --------------------------------------------
      LOOP:  cpu time   17.22: real time   17.24

 eigenvalue-minimisations  :  1160
 total energy-change (2. order) : 0.1196584E+00  (-0.3027382E-01)
 number of electron      48.0000114 magnetization       7.7869753
 augmentation part       25.0661947 magnetization       6.0024328

 Broyden mixing:
  rms(total) = 0.74847E+00    rms(broyden)= 0.74844E+00
  rms(prec ) = 0.80914E+00
  weight for this iteration     100.00

 eigenvalues of (default mixing * dielectric matrix)
  average eigenvalue GAMMA=   0.7322
  2.6110  2.6110  1.5180  1.2371  1.2371  0.7496  0.7496  0.6062  0.6062  0.5891
  0.5891  0.4465  0.3887  0.3887  0.2037  0.2037  0.0556  0.1142  0.1080  0.1080
  0.2558

 Free energy of the ion-electron system (eV)
  ---------------------------------------------------
  alpha Z        PSCENC =       116.24230980
  Ewald energy   TEWEN  =      6282.45156942
  -1/2 Hartree   DENC   =     -9866.74634979
  -exchange  EXHF       =         0.00000000
  -V(xc)+E(xc)   XCENC  =        20.09855248
  PAW double counting   =      3728.83115803    -3778.44150004
  entropy T*S    EENTRO =         0.00376898
  eigenvalues    EBANDS =      -107.97937979
  atomic energy  EATOM  =      3565.76896863
  ---------------------------------------------------
  free energy    TOTEN  =       -39.77090227 eV

  energy without entropy =      -39.77467125  energy(sigma->0) =      -39.77184452


--------------------------------------------------------------------------------------------------------




----------------------------------------- Iteration    1(  32)  ---------------------------------------


    POTLOK:  cpu time    0.30: real time    0.30
    SETDIJ:  cpu time    0.06: real time    0.06
    EDDIAG:  cpu time    3.70: real time    3.70
  RMM-DIIS:  cpu time   12.12: real time   12.13
    ORTHCH:  cpu time    0.09: real time    0.09
       DOS:  cpu time    0.00: real time    0.00
    CHARGE:  cpu time    1.86: real time    1.86
    MIXING:  cpu time    0.02: real time    0.03
    --------------------------------------------
      LOOP:  cpu time   18.16: real time   18.18

 eigenvalue-minimisations  :  1282
 total energy-change (2. order) :-0.8529686E-01  (-0.5519676E-01)
 number of electron      48.0000113 magnetization       7.9174472
 augmentation part       24.9772950 magnetization       6.1674692

 Broyden mixing:
  rms(total) = 0.73515E+00    rms(broyden)= 0.73513E+00
  rms(prec ) = 0.79441E+00
  weight for this iteration     100.00

 eigenvalues of (default mixing * dielectric matrix)
  average eigenvalue GAMMA=   0.7104
  2.5715  2.5715  1.4645  1.2202  1.2202  0.7535  0.7535  0.6384  0.6384  0.6031
  0.6031  0.3885  0.3885  0.4127  0.2037  0.2037  0.3041  0.3041  0.0556  0.1080
  0.1080  0.1142

 Free energy of the ion-electron system (eV)
  ---------------------------------------------------
  alpha Z        PSCENC =       116.24230980
  Ewald energy   TEWEN  =      6282.45156942
  -1/2 Hartree   DENC   =     -9871.54048570
  -exchange  EXHF       =         0.00000000
  -V(xc)+E(xc)   XCENC  =        20.39017224
  PAW double counting   =      3739.29877206    -3788.99560973
  entropy T*S    EENTRO =         0.00401568
  eigenvalues    EBANDS =      -103.47591155
  atomic energy  EATOM  =      3565.76896863
[...]
      8      -3.0262      1.00000
      9      -2.9270      1.00000
     10      -2.7505      1.00000
     11      -2.4441      1.00000
     12      -2.2946      1.00000
     13      -2.1829      1.00000
     14      -1.7181      1.00000
     15      -1.5194      1.00000
     16      -1.4180      1.00000
     17      -1.2010      1.00000
     18      -1.0663      1.00000
     19      -0.9070      1.00000
     20      -0.7773      0.99995
     21      -0.6876      0.99772
     22      -0.3655     -0.03324
     23      -0.2111      0.00352
     24      -0.1639      0.00081
     25       0.0607      0.00000
     26       0.1687      0.00000
     27       0.2905      0.00000
     28       0.4017      0.00000
     29       0.5244      0.00000
     30       0.7023      0.00000
     31       0.7795      0.00000

 k-point   6 :       0.4000    0.2000    0.0000
  band No.  band energies     occupation 
      1      -5.5209      1.00000
      2      -4.4892      1.00000
      3      -4.2904      1.00000
      4      -3.9961      1.00000
      5      -3.5870      1.00000
      6      -3.4282      1.00000
      7      -3.2896      1.00000
      8      -3.0932      1.00000
      9      -3.0089      1.00000
     10      -2.9420      1.00000
     11      -2.4786      1.00000
     12      -2.3495      1.00000
     13      -2.0331      1.00000
     14      -1.8922      1.00000
     15      -1.5835      1.00000
     16      -1.3598      1.00000
     17      -1.2170      1.00000
     18      -0.9868      1.00000
     19      -0.8143      1.00000
     20      -0.7223      0.99933
     21      -0.6301      0.99567
     22      -0.4387      0.47808
     23      -0.2880     -0.00896
     24      -0.1772      0.00133
     25      -0.0104      0.00000
     26       0.0686      0.00000
     27       0.1138      0.00000
     28       0.2202      0.00000
     29       0.4442      0.00000
     30       0.6271      0.00000
     31       0.6995      0.00000

 k-point   7 :       0.0000    0.4000    0.0000
  band No.  band energies     occupation 
      1      -4.9680      1.00000
      2      -4.6114      1.00000
      3      -4.2307      1.00000
      4      -3.9651      1.00000
      5      -3.7986      1.00000
      6      -3.5292      1.00000
      7      -3.4927      1.00000
      8      -2.9491      1.00000
      9      -2.7332      1.00000
     10      -2.6411      1.00000
     11      -2.2982      1.00000
     12      -1.9335      1.00000
     13      -1.6547      1.00000
     14      -1.5124      1.00000
     15      -1.4432      1.00000
     16      -1.0733      1.00000
     17      -0.9793      1.00000
     18      -0.8870      1.00000
     19      -0.7986      0.99999
     20      -0.7062      0.99876
     21      -0.4943      0.95742
     22      -0.3717     -0.01855
     23      -0.0698      0.00001
     24       0.2450      0.00000
     25       0.4262      0.00000
     26       0.5362      0.00000
     27       0.6486      0.00000
     28       0.6963      0.00000
     29       0.7158      0.00000
     30       0.8529      0.00000
     31       1.0588      0.00000

 k-point   8 :       0.2000    0.4000    0.0000
  band No.  band energies     occupation 
      1      -4.8212      1.00000
      2      -4.4193      1.00000
      3      -4.0946      1.00000
      4      -3.9434      1.00000
      5      -3.7301      1.00000
      6      -3.4966      1.00000
      7      -3.3080      1.00000
      8      -2.9565      1.00000
      9      -2.7024      1.00000
     10      -2.5659      1.00000
     11      -2.3119      1.00000
     12      -1.8826      1.00000
     13      -1.7268      1.00000
     14      -1.5264      1.00000
     15      -1.4505      1.00000
     16      -1.2748      1.00000
     17      -1.1316      1.00000
     18      -0.9234      1.00000
     19      -0.7402      0.99969
     20      -0.5590      1.03944
     21      -0.4226      0.31255
     22      -0.3436     -0.05157
     23      -0.0897      0.00002
     24       0.0113      0.00000
     25       0.2551      0.00000
     26       0.4496      0.00000
     27       0.5262      0.00000
     28       0.6245      0.00000
     29       0.6793      0.00000
     30       0.8361      0.00000
     31       1.1681      0.00000

 k-point   9 :       0.4000    0.4000    0.0000
  band No.  band energies     occupation 
      1      -4.5387      1.00000
      2      -4.2061      1.00000
      3      -3.9754      1.00000
      4      -3.7603      1.00000
      5      -3.4350      1.00000
      6      -3.2854      1.00000
      7      -3.1403      1.00000
      8      -3.0580      1.00000
      9      -2.6354      1.00000
     10      -2.3933      1.00000
     11      -2.2579      1.00000
     12      -2.1613      1.00000
     13      -1.6851      1.00000
     14      -1.6283      1.00000
     15      -1.5203      1.00000
     16      -1.3135      1.00000
     17      -1.0723      1.00000
     18      -0.9709      1.00000
     19      -0.8294      1.00000
     20      -0.7445      0.99975
     21      -0.3235     -0.04016
     22      -0.2139      0.00373
     23      -0.0632      0.00000
     24       0.0338      0.00000
     25       0.1058      0.00000
     26       0.3645      0.00000
     27       0.4367      0.00000
     28       0.5459      0.00000
     29       0.6311      0.00000
     30       0.9534      0.00000
     31       1.0232      0.00000


--------------------------------------------------------------------------------------------------------


 soft charge-density along one line, spin component           1
         0         1         2         3         4         5         6         7         8         9
 total charge-density along one line
 
 soft charge-density along one line, spin component           2
         0         1         2         3         4         5         6         7         8         9
 total charge-density along one line
 
 pseudopotential strength for first ion, spin component:           1
-10.059   0.131   0.000  -0.000  -0.000 -10.468   0.127   0.000
  0.131 -10.100  -0.000  -0.000   0.000   0.127 -10.508  -0.000
  0.000  -0.000 -10.272   0.002   0.044   0.000  -0.000 -10.676
 -0.000  -0.000   0.002 -10.172   0.005  -0.000  -0.000   0.002
 -0.000   0.000   0.044   0.005 -10.120  -0.000   0.000   0.043
-10.468   0.127   0.000  -0.000  -0.000 -10.839   0.124   0.000
  0.127 -10.508  -0.000  -0.000   0.000   0.124 -10.878  -0.000
  0.000  -0.000 -10.676   0.002   0.043   0.000  -0.000 -11.041
 -0.000  -0.000   0.002 -10.579   0.005  -0.000  -0.000   0.002
 -0.000   0.000   0.043   0.005 -10.528  -0.000   0.000   0.042
  0.000   0.000   0.015  -0.018   0.011   0.000   0.000   0.015
  0.000   0.000   0.027  -0.034   0.020   0.000   0.000   0.028
  0.012  -0.002  -0.000   0.000  -0.000   0.011  -0.003  -0.000
  0.000   0.000  -0.004   0.007   0.001   0.000   0.000  -0.005
  0.000   0.000  -0.005  -0.001   0.004   0.000   0.000  -0.005
  0.017   0.006  -0.000   0.000  -0.000   0.016   0.004  -0.000
  0.000   0.000   0.004   0.012   0.001   0.000   0.000   0.003
  0.000   0.000  -0.007   0.007   0.008   0.000   0.000  -0.007
 pseudopotential strength for first ion, spin component:           2
 -8.055  -0.054   0.000  -0.000  -0.000  -8.528  -0.054   0.000
 -0.054  -8.119  -0.000  -0.000   0.000  -0.054  -8.591  -0.000
  0.000  -0.000  -8.041   0.054   0.000   0.000  -0.000  -8.514
 -0.000  -0.000   0.054  -8.135   0.079  -0.000  -0.000   0.053
 -0.000   0.000   0.000   0.079  -7.994  -0.000   0.000   0.000
 -8.528  -0.054   0.000  -0.000  -0.000  -8.960  -0.053   0.000
 -0.054  -8.591  -0.000  -0.000   0.000  -0.053  -9.022  -0.000
  0.000  -0.000  -8.514   0.053   0.000   0.000  -0.000  -8.946
 -0.000  -0.000   0.053  -8.606   0.077  -0.000  -0.000   0.051
 -0.000   0.000   0.000   0.077  -8.468  -0.000   0.000  -0.000
  0.000   0.000   0.007  -0.005  -0.001   0.000   0.000   0.007
  0.000   0.000   0.013  -0.010  -0.003   0.000   0.000   0.012
 -0.007  -0.032  -0.000   0.000  -0.000  -0.007  -0.032  -0.000
  0.000   0.000  -0.035  -0.008   0.001   0.000   0.000  -0.034
  0.000   0.000   0.003  -0.031  -0.006   0.000   0.000   0.003
 -0.008  -0.034  -0.000   0.000  -0.000  -0.008  -0.034  -0.000
  0.000   0.000  -0.037  -0.008   0.001   0.000   0.000  -0.036
  0.000   0.000   0.003  -0.033  -0.005   0.000   0.000   0.003
 total augmentation occupancy for first ion, spin component:           1
  2.605  -0.146   0.000   0.000   0.000  -1.016   0.095   0.000   0.000   0.000   0.000   0.000  -0.022   0.000   0.000  -0.010
 -0.146   2.668   0.000   0.000   0.000   0.104  -1.078   0.000   0.000   0.000   0.000   0.000  -0.103   0.000   0.000  -0.030
  0.000   0.000   2.667   0.277  -0.082   0.000   0.000  -1.204  -0.248  -0.007  -0.087   0.036   0.000  -0.085  -0.030   0.000
  0.000   0.000   0.277   2.817   0.077   0.000   0.000  -0.246  -1.187  -0.133  -0.136  -0.016   0.000  -0.074  -0.080   0.000
  0.000   0.000  -0.082   0.077   2.857   0.000   0.000  -0.007  -0.131  -1.301   0.205   0.015   0.000  -0.000  -0.022   0.000
 -1.016   0.104   0.000   0.000   0.000   0.817   0.071   0.000   0.000   0.000   0.000   0.000   0.101   0.000   0.000  -0.007
  0.095  -1.078   0.000   0.000   0.000   0.071   0.890   0.000   0.000   0.000   0.000   0.000   0.183   0.000   0.000  -0.007
  0.000   0.000  -1.204  -0.246  -0.007   0.000   0.000   0.969   0.205   0.114   0.018  -0.014   0.000   0.184  -0.011   0.000
  0.000   0.000  -0.248  -1.187  -0.131   0.000   0.000   0.205   0.931   0.150   0.257  -0.011   0.000   0.102   0.186   0.000
  0.000   0.000  -0.007  -0.133  -1.301   0.000   0.000   0.114   0.150   1.055  -0.266   0.008   0.000   0.011   0.034   0.000
  0.000   0.000  -0.087  -0.136   0.205   0.000   0.000   0.018   0.257  -0.266   1.711  -0.104   0.000   0.210   0.097   0.000
  0.000   0.000   0.036  -0.016   0.015   0.000   0.000  -0.014  -0.011   0.008  -0.104   0.016   0.000  -0.021  -0.006   0.000
 -0.022  -0.103   0.000   0.000   0.000   0.101   0.183   0.000   0.000   0.000   0.000   0.000   0.146   0.000   0.000  -0.011
  0.000   0.000  -0.085  -0.074  -0.000   0.000   0.000   0.184   0.102   0.011   0.210  -0.021   0.000   0.104   0.015   0.000
  0.000   0.000  -0.030  -0.080  -0.022   0.000   0.000  -0.011   0.186   0.034   0.097  -0.006   0.000   0.015   0.107   0.000
 -0.010  -0.030   0.000   0.000   0.000  -0.007  -0.007   0.000   0.000   0.000   0.000   0.000  -0.011   0.000   0.000   0.002
  0.000   0.000  -0.037  -0.009  -0.002   0.000   0.000  -0.003  -0.003   0.001  -0.032   0.002   0.000  -0.011  -0.001   0.000
  0.000   0.000   0.007  -0.034  -0.011   0.000   0.000   0.000  -0.004   0.001  -0.012   0.001   0.000  -0.001  -0.009   0.000
 total augmentation occupancy for first ion, spin component:           2
  2.440  -0.237   0.000   0.000   0.000  -1.041   0.086   0.000   0.000   0.000   0.000   0.000  -0.017   0.000   0.000  -0.009
 -0.237   2.349   0.000   0.000   0.000   0.074  -1.011   0.000   0.000   0.000   0.000   0.000  -0.056   0.000   0.000  -0.032
  0.000   0.000   2.476   0.276  -0.115   0.000   0.000  -0.937  -0.183   0.070  -0.012   0.022   0.000  -0.005  -0.020   0.000
  0.000   0.000   0.276   2.533   0.146   0.000   0.000  -0.187  -1.091  -0.058   0.011  -0.030   0.000  -0.054  -0.046   0.000
  0.000   0.000  -0.115   0.146   2.705   0.000   0.000   0.075  -0.062  -1.165   0.045   0.034   0.000   0.002  -0.005   0.000
 -1.041   0.074   0.000   0.000   0.000   0.266  -0.073   0.000   0.000   0.000   0.000   0.000  -0.033   0.000   0.000   0.007
  0.086  -1.011   0.000   0.000   0.000  -0.073   0.279   0.000   0.000   0.000   0.000   0.000  -0.005   0.000   0.000   0.019
  0.000   0.000  -0.937  -0.187   0.075   0.000   0.000   0.191   0.128  -0.072   0.050  -0.004   0.000  -0.040   0.036   0.000
  0.000   0.000  -0.183  -1.091  -0.062   0.000   0.000   0.128   0.314   0.019  -0.066   0.017   0.000   0.021  -0.013   0.000
  0.000   0.000   0.070  -0.058  -1.165   0.000   0.000  -0.072   0.019   0.338  -0.008  -0.020   0.000  -0.000  -0.001   0.000
  0.000   0.000  -0.012   0.011   0.045   0.000   0.000   0.050  -0.066  -0.008  -0.196   0.090   0.000  -0.044  -0.025   0.000
  0.000   0.000   0.022  -0.030   0.034   0.000   0.000  -0.004   0.017  -0.020   0.090  -0.007   0.000   0.011   0.004   0.000
 -0.017  -0.056   0.000   0.000   0.000  -0.033  -0.005   0.000   0.000   0.000   0.000   0.000   0.015   0.000   0.000   0.003
  0.000   0.000  -0.005  -0.054   0.002   0.000   0.000  -0.040   0.021  -0.000  -0.044   0.011   0.000  -0.011   0.006   0.000
  0.000   0.000  -0.020  -0.046  -0.005   0.000   0.000   0.036  -0.013  -0.001  -0.025   0.004   0.000   0.006  -0.014   0.000
 -0.009  -0.032   0.000   0.000   0.000   0.007   0.019   0.000   0.000   0.000   0.000   0.000   0.003   0.000   0.000   0.000
  0.000   0.000  -0.048  -0.012  -0.002   0.000   0.000   0.026   0.007   0.002   0.003  -0.002   0.000   0.004  -0.000   0.000
  0.000   0.000   0.005  -0.037  -0.013   0.000   0.000  -0.004   0.021   0.007   0.001  -0.000   0.000   0.000   0.003   0.000


------------------------ aborting loop because EDIFF is reached ----------------------------------------


    CHARGE:  cpu time    1.84: real time    1.85
    FORLOC:  cpu time    0.01: real time    0.01
    FORNL :  cpu time    2.84: real time    2.84
    STRESS:  cpu time    2.80: real time    2.81
    FORCOR:  cpu time    0.30: real time    0.30
    FORHAR:  cpu time    0.03: real time    0.03
    MIXING:  cpu time    0.01: real time    0.01

  FORCE on cell =-STRESS in cart. coord.  units (eV):
  Direction    XX          YY          ZZ          XY          YZ          ZX
  --------------------------------------------------------------------------------------
  Alpha Z   116.24231   116.24231   116.24231
  Ewald   10030.83904 10128.36387-12153.37892     0.00000     0.00000    64.44537
  Hartree 11017.10207 11085.88362-10532.46865     0.00000     0.00000    34.66549
  E(xc)    -234.89642  -234.78456  -235.15619    -0.00000    -0.00000    -0.21971
  Local  -21436.35987-21604.63415 22313.34717    -0.00000    -0.00000   -99.59478
  n-local  -162.83665  -162.42118  -161.94828     2.39759    -0.03596     0.58516
  augment   234.84467   235.42799   230.13409    -0.00000    -0.00000     0.65591
  Kinetic   422.24639   421.73014   421.54426     0.74908     0.14781    -0.73736
  Fock        0.00000     0.00000     0.00000     0.00000     0.00000     0.00000
  -------------------------------------------------------------------------------------
  Total     -12.81844   -14.19195    -1.68422     0.00000     0.00000    -0.19992
  in kB     -95.94954  -106.23067   -12.60682     0.00000     0.00000    -1.49647
  external pressure =      -71.60 kB  Pullay stress =        0.00 kB


 VOLUME and BASIS-vectors are now :
 -----------------------------------------------------------------------------
  energy-cutoff  :      350.00
  volume of cell :      214.04
      direct lattice vectors                 reciprocal lattice vectors
     3.986512170  0.000000000  0.000000000     0.250845842  0.000000000  0.000000000
     0.000000000  2.818889790  0.000000000     0.000000000  0.354749591  0.000000000
     0.000000000  0.000000000 19.047224470     0.000000000  0.000000000  0.052501088

  length of vectors
     3.986512170  2.818889790 19.047224470     0.250845842  0.354749591  0.052501088


 FORCES acting on ions
    electron-ion (+dipol)            ewald-force                    non-local-force                 convergence-correction
 -----------------------------------------------------------------------------------------------
   0.538E+02 0.124E-06 0.148E+04   -.515E+02 -.239E-06 -.147E+04   -.223E+01 0.000E+00 -.623E+01   -.651E-02 -.184E-10 -.155E-01
   -.657E+02 -.174E-07 0.942E+03   0.643E+02 0.436E-06 -.943E+03   0.134E+01 0.000E+00 -.221E+00   -.395E-03 -.482E-10 0.448E-01
   0.898E+01 0.208E-06 0.333E+03   -.914E+01 -.400E-06 -.332E+03   0.160E+00 0.000E+00 -.124E+01   -.697E-02 -.324E-10 0.800E-01
   0.593E+01 0.104E-06 -.290E+03   -.551E+01 0.359E-06 0.289E+03   -.412E+00 0.000E+00 0.101E+01   -.937E-02 -.722E-10 0.136E+00
   0.687E+01 0.210E-06 -.100E+04   -.673E+01 -.402E-06 0.100E+04   -.158E+00 0.000E+00 -.744E+00   0.166E-01 0.313E-10 0.110E+00
   -.898E+01 0.146E-06 -.146E+04   0.860E+01 0.245E-06 0.146E+04   0.397E+00 0.000E+00 0.626E+01   -.218E-01 -.403E-11 0.449E-01
 -----------------------------------------------------------------------------------------------
   0.929E+00 0.774E-06 0.772E+00   -.160E-13 -.366E-14 0.000E+00   -.900E+00 0.000E+00 -.117E+01   -.284E-01 -.144E-09 0.400E+00
 
 
 POSITION                                       TOTAL-FORCE (eV/Angst)
 -----------------------------------------------------------------------------------
      0.00000      0.00000      0.00000         0.129714      0.000000      1.060393
      1.40944      1.40944      1.40944        -0.119617      0.000000     -1.049479
     -0.56219      0.00000      2.59071        -0.005146      0.000000     -0.003777
      1.49024      1.40944      3.76769        -0.002817      0.000000     -0.002760
     -0.56343      0.00000      5.12704         0.005216      0.000000     -0.005995
      1.35249      1.40944      6.14196        -0.007349      0.000000      0.001618
 -----------------------------------------------------------------------------------
    total drift:                                0.000629      0.000001     -0.000841


--------------------------------------------------------------------------------------------------------



  FREE ENERGIE OF THE ION-ELECTRON SYSTEM (eV)
  ---------------------------------------------------
  free  energy   TOTEN  =       -43.54181188 eV

  energy  without entropy=      -43.54503396  energy(sigma->0) =      -43.54261740
 
 d Force = 0.4526126E-04[ 0.253E-04, 0.652E-04]  d Energy = 0.3005009E-04 0.152E-04
 d Force =-0.1639738E+00[-0.165E+00,-0.163E+00]  d Ewald  =-0.1639735E+00-0.278E-06


--------------------------------------------------------------------------------------------------------


    POTLOK:  cpu time    0.36: real time    0.35


--------------------------------------------------------------------------------------------------------


 Conjugate gradient step on ions:
 trial-energy change:   -0.000030  1 .order   -0.000045   -0.000065   -0.000025
  (g-gl).g = 0.319E-05      g.g   = 0.265E-04  gl.gl    = 0.574E-04
 g(Force)  = 0.265E-04   g(Stress)= 0.000E+00 ortho     = 0.269E-05
 gamma     =   0.05567
 trial     =   2.44384
 opt step  =   3.99880  (harmonic =   3.99880) maximal distance =0.00216312
 next E    =   -43.541835   (d E  =  -0.00005)


--------------------------------------------------------------------------------------------------------


  
 reached required accuracy - stopping structural energy minimisation
     LOOP+:  cpu time   97.74: real time   97.81
    4ORBIT:  cpu time    0.00: real time    0.00

 total amount of memory used by VASP on root node    85477. kBytes
========================================================================

   base      :      30000. kBytes
   nonl-proj :       4464. kBytes
   fftplans  :       6232. kBytes
   grid      :      14999. kBytes
   one-center:        186. kBytes
   wavefun   :      29596. kBytes
 
  
  
 General timing and accounting informations for this job:
 ========================================================
  
                  Total CPU time used (sec):    14156.744
                            User time (sec):    14149.452
                          System time (sec):        7.292
                         Elapsed time (sec):    14175.035
  
                   Maximum memory used (kb):      168204.
                   Average memory used (kb):           0.
  
                          Minor page faults:       136452
                          Major page faults:            0
                 Voluntary context switches:            5
