<?xml version="1.0" encoding="ISO-8859-1"?>
<modeling>
 <generator>
  <i name="program" type="string">vasp </i>
  <i name="version" type="string">5.3.3  </i>
  <i name="subversion" type="string">18Dez12 (build Sep  7 2015 22:32:56) complex                          parallel </i>
  <i name="platform" type="string">LinuxIFC </i>
  <i name="date" type="string">2022 12 07 </i>
  <i name="time" type="string">13:55:21 </i>
 </generator>
 <incar>
  <i type="string" name="SYSTEM"> Crystal</i>
  <i type="int" name="ISTART">     0</i>
  <i type="string" name="PREC">normal</i>
  <i type="string" name="ALGO"> fast</i>
  <i type="int" name="NSIM">     4</i>
  <i type="int" name="ISPIN">     2</i>
  <i type="int" name="ICHARG">     2</i>
  <i type="int" name="NELMDL">   -10</i>
  <i type="int" name="NELMIN">     4</i>
  <i type="int" name="IBRION">     2</i>
  <i name="EDIFF">      0.00001000</i>
  <i name="EDIFFG">     -0.01000000</i>
  <i type="int" name="NSW">   300</i>
  <i name="ENCUT">    350.00000000</i>
  <i type="logical" name="LREAL"> F  </i>
  <i type="int" name="ISMEAR">     2</i>
  <i name="SIGMA">      0.10000000</i>
  <i type="logical" name="LWAVE"> F  </i>
  <i type="logical" name="LCHARG"> F  </i>
 </incar>
 <kpoints>
  <generation param="Gamma">
   <v type="int" name="divisions">       5        5        1 </v>
   <v name="usershift">      0.00000000       0.00000000       0.00000000 </v>
   <v name="genvec1">      0.20000000       0.00000000       0.00000000 </v>
   <v name="genvec2">      0.00000000       0.20000000       0.00000000 </v>
   <v name="genvec3">      0.00000000       0.00000000       1.00000000 </v>
   <v name="shift">      0.00000000       0.00000000       0.00000000 </v>
  </generation>
  <varray name="kpointlist" >
   <v>       0.00000000       0.00000000       0.00000000 </v>
   <v>       0.20000000       0.00000000       0.00000000 </v>
   <v>       0.40000000       0.00000000       0.00000000 </v>
   <v>       0.00000000       0.20000000       0.00000000 </v>
   <v>       0.20000000       0.20000000       0.00000000 </v>
   <v>       0.40000000       0.20000000       0.00000000 </v>
   <v>       0.00000000       0.40000000       0.00000000 </v>
   <v>       0.20000000       0.40000000       0.00000000 </v>
   <v>       0.40000000       0.40000000       0.00000000 </v>
  </varray>
  <varray name="weights" >
   <v>       0.04000000 </v>
   <v>       0.08000000 </v>
   <v>       0.08000000 </v>
   <v>       0.08000000 </v>
   <v>       0.16000000 </v>
   <v>       0.16000000 </v>
   <v>       0.08000000 </v>
   <v>       0.16000000 </v>
   <v>       0.16000000 </v>
  </varray>
 </kpoints>
 <parameters>
  <separator name="general" >
   <i type="string" name="SYSTEM">Crystal</i>
   <i type="logical" name="LCOMPAT"> F  </i>
  </separator>
  <separator name="electronic" >
   <i type="string" name="PREC">normal</i>
   <i name="ENMAX">    350.00000000</i>
   <i name="ENAUG">    511.36800000</i>
   <i name="EDIFF">      0.00001000</i>
   <i type="int" name="IALGO">    68</i>
   <i type="int" name="IWAVPR">    11</i>
   <i type="int" name="NBANDS">    31</i>
   <i name="NELECT">     48.00000000</i>
   <i type="int" name="TURBO">     0</i>
   <i type="int" name="IRESTART">     0</i>
   <i type="int" name="NREBOOT">     0</i>
   <i type="int" name="NMIN">     0</i>
   <i name="EREF">      0.00000000</i>
   <separator name="electronic smearing" >
    <i type="int" name="ISMEAR">     2</i>
    <i name="SIGMA">      0.10000000</i>
    <i name="KSPACING">      0.50000000</i>
    <i type="logical" name="KGAMMA"> T  </i>
   </separator>
   <separator name="electronic projectors" >
    <i type="logical" name="LREAL"> F  </i>
    <v name="ROPT">      0.00000000</v>
    <i type="int" name="LMAXPAW">  -100</i>
    <i type="int" name="LMAXMIX">     2</i>
    <i type="logical" name="NLSPLINE"> F  </i>
   </separator>
   <separator name="electronic startup" >
    <i type="int" name="ISTART">     0</i>
    <i type="int" name="ICHARG">     2</i>
    <i type="int" name="INIWAV">     1</i>
   </separator>
   <separator name="electronic spin" >
    <i type="int" name="ISPIN">     2</i>
    <i type="logical" name="LNONCOLLINEAR"> F  </i>
    <v name="MAGMOM">      1.00000000      1.00000000      1.00000000      1.00000000      1.00000000      1.00000000</v>
    <i name="NUPDOWN">     -1.00000000</i>
    <i type="logical" name="LSORBIT"> F  </i>
    <v name="SAXIS">      0.00000000      0.00000000      1.00000000</v>
    <i type="logical" name="LSPIRAL"> F  </i>
    <v name="QSPIRAL">      0.00000000      0.00000000      0.00000000</v>
    <i type="logical" name="LZEROZ"> F  </i>
   </separator>
   <separator name="electronic exchange-correlation" >
    <i type="logical" name="LASPH"> F  </i>
    <i type="logical" name="LMETAGGA"> F  </i>
   </separator>
   <separator name="electronic convergence" >
    <i type="int" name="NELM">    60</i>
    <i type="int" name="NELMDL">   -10</i>
    <i type="int" name="NELMIN">     4</i>
    <i name="ENINI">    350.00000000</i>
    <separator name="electronic convergence detail" >
     <i type="logical" name="LDIAG"> T  </i>
     <i type="logical" name="LSUBROT"> T  </i>
     <i name="WEIMIN">      0.00100000</i>
     <i name="EBREAK">      0.00000008</i>
     <i name="DEPER">      0.30000000</i>
     <i type="int" name="NRMM">     4</i>
     <i name="TIME">      0.40000000</i>
    </separator>
   </separator>
   <separator name="electronic mixer" >
    <i name="AMIX">      0.40000000</i>
    <i name="BMIX">      1.00000000</i>
    <i name="AMIN">      0.10000000</i>
    <i name="AMIX_MAG">      1.60000000</i>
    <i name="BMIX_MAG">      1.00000000</i>
    <separator name="electronic mixer details" >
     <i type="int" name="IMIX">     4</i>
     <i type="int" name="MAXMIX">   -45</i>
     <i name="WC">    100.00000000</i>
     <i type="int" name="INIMIX">     1</i>
     <i type="int" name="MIXPRE">     1</i>
     <i type="int" name="MREMOVE">     5</i>
    </separator>
   </separator>
   <separator name="electronic dipolcorrection" >
    <i type="logical" name="LDIPOL"> F  </i>
    <i type="logical" name="LMONO"> F  </i>
    <i type="int" name="IDIPOL">     0</i>
    <i name="EPSILON">      1.00000000</i>
    <v name="DIPOL">   -100.00000000   -100.00000000   -100.00000000</v>
    <i name="EFIELD">      0.00000000</i>
   </separator>
  </separator>
  <separator name="grids" >
   <i type="int" name="NGX">    18</i>
   <i type="int" name="NGY">    14</i>
   <i type="int" name="NGZ">    90</i>
   <i type="int" name="NGXF">    36</i>
   <i type="int" name="NGYF">    28</i>
   <i type="int" name="NGZF">   180</i>
   <i type="logical" name="ADDGRID"> F  </i>
  </separator>
  <separator name="ionic" >
   <i type="int" name="NSW">   300</i>
   <i type="int" name="IBRION">     2</i>
   <i type="int" name="ISIF">     2</i>
   <i name="PSTRESS">      0.00000000</i>
   <i name="EDIFFG">     -0.01000000</i>
   <i type="int" name="NFREE">     1</i>
   <i name="POTIM">      0.50000000</i>
   <i name="SMASS">     -3.00000000</i>
   <i name="SCALEE">      1.00000000</i>
  </separator>
  <separator name="ionic md" >
   <i name="TEBEG">      0.00010000</i>
   <i name="TEEND">      0.00010000</i>
   <i type="int" name="NBLOCK">     1</i>
   <i type="int" name="KBLOCK">   300</i>
   <i type="int" name="NPACO">   256</i>
   <i name="APACO">     16.00000000</i>
  </separator>
  <separator name="symmetry" >
   <i type="int" name="ISYM">     2</i>
   <i name="SYMPREC">      0.00001000</i>
  </separator>
  <separator name="dos" >
   <i type="logical" name="LORBIT"> F  </i>
   <v name="RWIGS">     -1.00000000</v>
   <i type="int" name="NEDOS">   301</i>
   <i name="EMIN">     10.00000000</i>
   <i name="EMAX">    -10.00000000</i>
   <i name="EFERMI">      0.00000000</i>
  </separator>
  <separator name="writing" >
   <i type="int" name="NWRITE">     2</i>
   <i type="logical" name="LWAVE"> F  </i>
   <i type="logical" name="LCHARG"> F  </i>
   <i type="logical" name="LPARD"> F  </i>
   <i type="logical" name="LVTOT"> F  </i>
   <i type="logical" name="LVHAR"> F  </i>
   <i type="logical" name="LELF"> F  </i>
   <i type="logical" name="LOPTICS"> F  </i>
   <v name="STM">      0.00000000      0.00000000      0.00000000      0.00000000      0.00000000      0.00000000      0.00000000</v>
  </separator>
  <separator name="performance" >
   <i type="int" name="NPAR">     1</i>
   <i type="int" name="NSIM">     4</i>
   <i type="int" name="NBLK">    -1</i>
   <i type="logical" name="LPLANE"> T  </i>
   <i type="logical" name="LSCALAPACK"> F  </i>
   <i type="logical" name="LSCAAWARE"> F  </i>
   <i type="logical" name="LSCALU"> F  </i>
   <i type="logical" name="LASYNC"> F  </i>
   <i type="logical" name="LORBITALREAL"> F  </i>
  </separator>
  <separator name="miscellaneous" >
   <i type="int" name="IDIOT">     3</i>
   <i type="logical" name="LMUSIC"> F  </i>
   <v name="POMASS">     55.84700000</v>
   <v name="DARWINR">      0.00000000</v>
   <v name="DARWINV">      1.00000000</v>
   <i type="logical" name="LCORR"> T  </i>
  </separator>
  <i type="logical" name="GGA_COMPAT"> T  </i>
  <i type="logical" name="LBERRY"> F  </i>
  <i type="int" name="ICORELEVEL">     0</i>
  <i type="logical" name="LDAU"> F  </i>
  <i type="int" name="I_CONSTRAINED_M">     0</i>
  <separator name="electronic exchange-correlation" >
   <i type="string" name="GGA">--</i>
   <i type="int" name="VOSKOWN">     0</i>
   <i type="logical" name="LHFCALC"> F  </i>
   <i type="string" name="PRECFOCK"></i>
   <i type="logical" name="LSYMGRAD"> F  </i>
   <i type="logical" name="LHFONE"> F  </i>
   <i type="logical" name="LRHFCALC"> F  </i>
   <i type="logical" name="LTHOMAS"> F  </i>
   <i type="logical" name="LMODELHF"> F  </i>
   <i name="ENCUT4O">     -1.00000000</i>
   <i type="int" name="EXXOEP">     0</i>
   <i type="int" name="FOURORBIT">     0</i>
   <i name="AEXX">      0.00000000</i>
   <i name="HFALPHA">      0.00000000</i>
   <i name="MCALPHA">      0.00000000</i>
   <i name="ALDAX">      1.00000000</i>
   <i name="AGGAX">      1.00000000</i>
   <i name="ALDAC">      1.00000000</i>
   <i name="AGGAC">      1.00000000</i>
   <i type="int" name="NKREDX">     1</i>
   <i type="int" name="NKREDY">     1</i>
   <i type="int" name="NKREDZ">     1</i>
   <i type="logical" name="SHIFTRED"> F  </i>
   <i type="logical" name="ODDONLY"> F  </i>
   <i type="logical" name="EVENONLY"> F  </i>
   <i type="int" name="LMAXFOCK">     0</i>
   <i type="int" name="NMAXFOCKAE">     0</i>
   <i type="logical" name="LFOCKAEDFT"> F  </i>
   <i name="HFSCREEN">      0.00000000</i>
   <i name="HFSCREENC">      0.00000000</i>
   <i type="int" name="NBANDSGWLOW">     0</i>
  </separator>
  <separator name="vdW DFT" >
   <i type="logical" name="LUSE_VDW"> F  </i>
   <i name="Zab_VDW">     -0.84910000</i>
   <i name="PARAM1">      0.12340000</i>
   <i name="PARAM2">      1.00000000</i>
   <i name="PARAM3">      0.00000000</i>
  </separator>
  <separator name="model GW" >
   <i type="int" name="MODEL_GW">     0</i>
   <i name="MODEL_EPS0">     21.40439174</i>
   <i name="MODEL_ALPHA">      1.00000000</i>
  </separator>
  <separator name="linear response parameters" >
   <i type="logical" name="LEPSILON"> F  </i>
   <i type="logical" name="LRPA"> F  </i>
   <i type="logical" name="LNABLA"> F  </i>
   <i type="logical" name="LVEL"> F  </i>
   <i type="int" name="KINTER">     0</i>
   <i name="CSHIFT">      0.10000000</i>
   <i name="OMEGAMAX">     -1.00000000</i>
   <i name="DEG_THRESHOLD">      0.00200000</i>
  </separator>
  <separator name="orbital magnetization" >
   <i type="logical" name="NUCIND"> F  </i>
   <v name="MAGPOS">      0.00000000      0.00000000      0.00000000</v>
   <i type="logical" name="LNICSALL"> T  </i>
   <i type="logical" name="ORBITALMAG"> F  </i>
   <i type="logical" name="LMAGBLOCH"> F  </i>
   <i type="logical" name="LCHIMAG"> F  </i>
   <i type="logical" name="LGAUGE"> T  </i>
   <i type="int" name="MAGATOM">     0</i>
   <v name="MAGDIPOL">      0.00000000      0.00000000      0.00000000</v>
   <v name="AVECCONST">      0.00000000      0.00000000      0.00000000</v>
  </separator>
  <separator name="response functions" >
   <i type="logical" name="LADDER"> F  </i>
   <i type="logical" name="LFXC"> F  </i>
   <i type="logical" name="LHARTREE"> T  </i>
   <i type="int" name="IBSE">     0</i>
   <i type="logical" name="LTCTE"> F  </i>
   <i type="logical" name="LTETE"> F  </i>
   <i type="logical" name="LTRIPLET"> F  </i>
   <i type="logical" name="LFXCEPS"> F  </i>
   <i type="logical" name="L2ORDER"> F  </i>
   <i type="logical" name="LUSEW"> F  </i>
   <i name="ENCUTGW">     -2.00000000</i>
   <i name="ENCUTGWSOFT">     -2.00000000</i>
   <i name="ENCUTLF">     -1.00000000</i>
   <i type="int" name="LMAXMP2">    -1</i>
   <i name="SCISSOR">      0.00000000</i>
   <i type="int" name="NOMEGA">     0</i>
   <i type="int" name="NOMEGAR">     0</i>
   <i type="int" name="NBANDSGW">    -1</i>
   <i type="int" name="NBANDSO">    -1</i>
   <i type="int" name="NBANDSV">    -1</i>
   <i type="int" name="NELM">     1</i>
   <i type="int" name="DIM">     3</i>
   <i type="int" name="ANTIRES">     0</i>
   <i name="OMEGAMAX">    -30.00000000</i>
   <i name="OMEGATL">   -200.00000000</i>
   <i type="int" name="OMEGAGRID">     0</i>
   <i name="CSHIFT">     -0.10000000</i>
   <i type="logical" name="SELFENERGY"> F  </i>
   <i type="logical" name="LSPECTRAL"> F  </i>
   <i type="logical" name="ODDONLYGW"> F  </i>
   <i type="logical" name="EVENONLYGW"> F  </i>
   <i type="int" name="NKREDLFX">     1</i>
   <i type="int" name="NKREDLFY">     1</i>
   <i type="int" name="NKREDLFZ">     1</i>
   <i type="int" name="MAXMEM">  1800</i>
   <i type="int" name="TELESCOPE">     0</i>
  </separator>
 </parameters>
 <atominfo>
  <atoms>       6 </atoms>
  <types>       1 </types>
  <array name="atoms" >
   <dimension dim="1">ion</dimension>
   <field type="string">element</field>
   <field type="int">atomtype</field>
   <set>
    <rc><c>Fe</c><c>   1</c></rc>
    <rc><c>Fe</c><c>   1</c></rc>
    <rc><c>Fe</c><c>   1</c></rc>
    <rc><c>Fe</c><c>   1</c></rc>
    <rc><c>Fe</c><c>   1</c></rc>
    <rc><c>Fe</c><c>   1</c></rc>
   </set>
  </array>
  <array name="atomtypes" >
   <dimension dim="1">type</dimension>
   <field type="int">atomspertype</field>
   <field type="string">element</field>
   <field>mass</field>
   <field>valence</field>
   <field type="string">pseudopotential</field>
   <set>
    <rc><c>   6</c><c>Fe</c><c>     55.84700000</c><c>      8.00000000</c><c>  PAW_PBE Fe 06Sep2000                  </c></rc>
   </set>
  </array>
 </atominfo>
 <structure name="initialpos" >
  <crystal>
   <varray name="basis" >
    <v>       3.98651217       0.00000000       0.00000000 </v>
    <v>       0.00000000       2.81888979       0.00000000 </v>
    <v>       0.00000000       0.00000000      19.04722447 </v>
   </varray>
   <i name="volume">    214.04391742 </i>
   <varray name="rec_basis" >
    <v>       0.25084584       0.00000000       0.00000000 </v>
    <v>       0.00000000       0.35474959       0.00000000 </v>
    <v>       0.00000000       0.00000000       0.05250109 </v>
   </varray>
  </crystal>
  <varray name="positions" >
   <v>       0.00000000       0.00000000       0.00000000 </v>
   <v>       0.35355339       0.50000000       0.07399739 </v>
   <v>       0.00000000       0.00000000       0.14799478 </v>
   <v>       0.35355339       0.50000000       0.22199217 </v>
   <v>       0.00000000       0.00000000       0.29598956 </v>
   <v>       0.35355339       0.50000000       0.36998695 </v>
  </varray>
  <varray name="selective"  type="logical" >
   <v type="logical" >  F  F  F </v>
   <v type="logical" >  F  F  F </v>
   <v type="logical" >  T  T  T </v>
   <v type="logical" >  T  T  T </v>
   <v type="logical" >  T  T  T </v>
   <v type="logical" >  T  T  T </v>
  </varray>
  <nose>
   <v>      -3.00000000       0.00000000       0.00010000       0.00010000 </v>
  </nose>
 </structure>
 <calculation>
  <scstep>
   <time name="dav">   12.96   12.98</time>
   <time name="total">   13.32   13.33</time>
   <energy>
    <i name="alphaZ">    116.24230980 </i>
    <i name="ewald">   6282.45156942 </i>
    <i name="hartreedc">  -9876.18947711 </i>
    <i name="XCdc">     18.26655068 </i>
    <i name="pawpsdc">   3328.36036734 </i>
    <i name="pawaedc">  -3374.58551447 </i>
    <i name="eentropy">      0.00247669 </i>
    <i name="bandstr">    233.52991534 </i>
    <i name="atom">   3565.76896863 </i>
    <i name="e_fr_energy">    293.84716632 </i>
    <i name="e_wo_entrp">    293.84468963 </i>
    <i name="e_0_energy">    293.84654715 </i>
   </energy>
  </scstep>
  <scstep>
   <time name="dav">   12.96   12.97</time>
   <time name="total">   12.96   12.97</time>
   <energy>
    <i name="e_fr_energy">    -19.76309029 </i>
    <i name="e_wo_entrp">    -19.76092154 </i>
    <i name="e_0_energy">    -19.76254810 </i>
   </energy>
  </scstep>
  <scstep>
   <time name="dav">   19.15   19.17</time>
   <time name="total">   19.16   19.17</time>
   <energy>
    <i name="e_fr_energy">    -44.04325454 </i>
    <i name="e_wo_entrp">    -44.04174109 </i>
    <i name="e_0_energy">    -44.04287618 </i>
   </energy>
  </scstep>
  <scstep>
   <time name="dav">   17.40   17.42</time>
   <time name="total">   17.40   17.42</time>
   <energy>
    <i name="e_fr_energy">    -46.37774450 </i>
    <i name="e_wo_entrp">    -46.37883493 </i>
    <i name="e_0_energy">    -46.37801710 </i>
   </energy>
  </scstep>
  <scstep>
   <time name="dav">   18.84   18.86</time>
   <time name="total">   18.84   18.86</time>
   <energy>
    <i name="e_fr_energy">    -46.62754279 </i>
    <i name="e_wo_entrp">    -46.63073794 </i>
    <i name="e_0_energy">    -46.62834158 </i>
   </energy>
  </scstep>
  <scstep>
   <time name="dav">   16.84   16.86</time>
   <time name="total">   16.85   16.86</time>
   <energy>
    <i name="e_fr_energy">    -46.65905599 </i>
    <i name="e_wo_entrp">    -46.66210362 </i>
    <i name="e_0_energy">    -46.65981790 </i>
   </energy>
  </scstep>
  <scstep>
   <time name="dav">   19.18   19.19</time>
   <time name="total">   19.18   19.20</time>
   <energy>
    <i name="e_fr_energy">    -46.66588276 </i>
    <i name="e_wo_entrp">    -46.66887939 </i>
    <i name="e_0_energy">    -46.66663192 </i>
   </energy>
  </scstep>
  <scstep>
   <time name="dav">   14.76   14.77</time>
   <time name="total">   14.76   14.77</time>
   <energy>
    <i name="e_fr_energy">    -46.66815813 </i>
    <i name="e_wo_entrp">    -46.67095094 </i>
    <i name="e_0_energy">    -46.66885634 </i>
   </energy>
  </scstep>
  <scstep>
   <time name="dav">   14.36   14.38</time>
   <time name="total">   14.37   14.38</time>
   <energy>
    <i name="e_fr_energy">    -46.66870962 </i>
    <i name="e_wo_entrp">    -46.67146795 </i>
    <i name="e_0_energy">    -46.66939920 </i>
   </energy>
  </scstep>
  <scstep>
   <time name="dav">   12.16   12.17</time>
   <time name="total">   14.02   14.03</time>
   <energy>
    <i name="e_fr_energy">    -46.66885213 </i>
    <i name="e_wo_entrp">    -46.67164526 </i>
    <i name="e_0_energy">    -46.66955041 </i>
   </energy>
  </scstep>
  <scstep>
   <time name="diag">    3.67    3.67</time>
   <time name="diis">   12.06   12.07</time>
   <time name="orth">    0.09    0.09</time>
   <time name="total">   18.03   18.04</time>
   <energy>
    <i name="e_fr_energy">    -77.09170996 </i>
    <i name="e_wo_entrp">    -77.09046557 </i>
    <i name="e_0_energy">    -77.09139887 </i>
   </energy>
  </scstep>
  <scstep>
   <time name="diag">    3.66    3.67</time>
   <time name="diis">   10.61   10.62</time>
   <time name="orth">    0.09    0.09</time>
   <time name="total">   16.58   16.59</time>
   <energy>
    <i name="e_fr_energy">    -49.09480341 </i>
    <i name="e_wo_entrp">    -49.09736423 </i>
    <i name="e_0_energy">    -49.09544361 </i>
   </energy>
  </scstep>
  <scstep>
   <time name="diag">    3.66    3.67</time>
   <time name="diis">   10.90   10.91</time>
   <time name="orth">    0.09    0.09</time>
   <time name="total">   16.86   16.88</time>
   <energy>
    <i name="e_fr_energy">    -46.72415422 </i>
    <i name="e_wo_entrp">    -46.72418072 </i>
    <i name="e_0_energy">    -46.72416085 </i>
   </energy>
  </scstep>
  <scstep>
   <time name="diag">    3.67    3.67</time>
   <time name="diis">   10.88   10.89</time>
   <time name="orth">    0.09    0.09</time>
   <time name="total">   16.85   16.87</time>
   <energy>
    <i name="e_fr_energy">    -42.00499699 </i>
    <i name="e_wo_entrp">    -42.00433917 </i>
    <i name="e_0_energy">    -42.00483253 </i>
   </energy>
  </scstep>
  <scstep>
   <time name="diag">    3.70    3.70</time>
   <time name="diis">   11.30   11.31</time>
   <time name="orth">    0.09    0.09</time>
   <time name="total">   17.33   17.35</time>
   <energy>
    <i name="e_fr_energy">    -42.24401413 </i>
    <i name="e_wo_entrp">    -42.24589258 </i>
    <i name="e_0_energy">    -42.24448374 </i>
   </energy>
  </scstep>
  <scstep>
   <time name="diag">    3.69    3.69</time>
   <time name="diis">   11.51   11.53</time>
   <time name="orth">    0.09    0.09</time>
   <time name="total">   17.52   17.54</time>
   <energy>
    <i name="e_fr_energy">    -41.38967896 </i>
    <i name="e_wo_entrp">    -41.39453114 </i>
    <i name="e_0_energy">    -41.39089200 </i>
   </energy>
  </scstep>
  <scstep>
   <time name="diag">    3.68    3.69</time>
   <time name="diis">   11.55   11.57</time>
   <time name="orth">    0.09    0.09</time>
   <time name="total">   17.55   17.57</time>
   <energy>
    <i name="e_fr_energy">    -41.17548247 </i>
    <i name="e_wo_entrp">    -41.17467924 </i>
    <i name="e_0_energy">    -41.17528166 </i>
   </energy>
  </scstep>
  <scstep>
   <time name="diag">    3.70    3.70</time>
   <time name="diis">   11.54   11.55</time>
   <time name="orth">    0.10    0.09</time>
   <time name="total">   17.57   17.59</time>
   <energy>
    <i name="e_fr_energy">    -40.44527343 </i>
    <i name="e_wo_entrp">    -40.44510359 </i>
    <i name="e_0_energy">    -40.44523097 </i>
   </energy>
  </scstep>
  <scstep>
   <time name="diag">    3.72    3.73</time>
   <time name="diis">   12.51   12.53</time>
   <time name="orth">    0.09    0.09</time>
   <time name="total">   18.56   18.59</time>
   <energy>
    <i name="e_fr_energy">    -39.92196198 </i>
    <i name="e_wo_entrp">    -39.92264019 </i>
    <i name="e_0_energy">    -39.92213154 </i>
   </energy>
  </scstep>
  <scstep>
   <time name="diag">    3.70    3.70</time>
   <time name="diis">   15.06   15.08</time>
   <time name="orth">    0.09    0.09</time>
   <time name="total">   21.08   21.11</time>
   <energy>
    <i name="e_fr_energy">    -39.94520062 </i>
    <i name="e_wo_entrp">    -39.94487810 </i>
    <i name="e_0_energy">    -39.94511999 </i>
   </energy>
  </scstep>
  <scstep>
   <time name="diag">    3.72    3.72</time>
   <time name="diis">   12.46   12.48</time>
   <time name="orth">    0.09    0.09</time>
   <time name="total">   18.50   18.53</time>
   <energy>
    <i name="e_fr_energy">    -39.94932426 </i>
    <i name="e_wo_entrp">    -39.94916754 </i>
    <i name="e_0_energy">    -39.94928508 </i>
   </energy>
  </scstep>
  <scstep>
   <time name="diag">    3.70    3.70</time>
   <time name="diis">   11.48   11.49</time>
   <time name="orth">    0.09    0.09</time>
   <time name="total">   17.51   17.53</time>
   <energy>
    <i name="e_fr_energy">    -39.85900605 </i>
    <i name="e_wo_entrp">    -39.85909267 </i>
    <i name="e_0_energy">    -39.85902770 </i>
   </energy>
  </scstep>
  <scstep>
   <time name="diag">    3.70    3.70</time>
   <time name="diis">   13.99   14.01</time>
   <time name="orth">    0.09    0.09</time>
   <time name="total">   20.02   20.05</time>
   <energy>
    <i name="e_fr_energy">    -39.81741624 </i>
    <i name="e_wo_entrp">    -39.81618043 </i>
    <i name="e_0_energy">    -39.81710729 </i>
   </energy>
  </scstep>
  <scstep>
   <time name="diag">    3.70    3.71</time>
   <time name="diis">   12.70   12.71</time>
   <time name="orth">    0.09    0.09</time>
   <time name="total">   18.74   18.76</time>
   <energy>
    <i name="e_fr_energy">    -39.81842405 </i>
    <i name="e_wo_entrp">    -39.81473846 </i>
    <i name="e_0_energy">    -39.81750265 </i>
   </energy>
  </scstep>
  <scstep>
   <time name="diag">    3.70    3.71</time>
   <time name="diis">   12.14   12.16</time>
   <time name="orth">    0.09    0.09</time>
   <time name="total">   18.18   18.20</time>
   <energy>
    <i name="e_fr_energy">    -39.79672132 </i>
    <i name="e_wo_entrp">    -39.78698934 </i>
    <i name="e_0_energy">    -39.79428833 </i>
   </energy>
  </scstep>
  <scstep>
   <time name="diag">    3.71    3.72</time>
   <time name="diis">   13.49   13.50</time>
   <time name="orth">    0.09    0.09</time>
   <time name="total">   19.53   19.56</time>
   <energy>
    <i name="e_fr_energy">    -39.53341597 </i>
    <i name="e_wo_entrp">    -39.52781256 </i>
    <i name="e_0_energy">    -39.53201512 </i>
   </energy>
  </scstep>
  <scstep>
   <time name="diag">    3.70    3.70</time>
   <time name="diis">   14.54   14.55</time>
   <time name="orth">    0.09    0.09</time>
   <time name="total">   20.57   20.59</time>
   <energy>
    <i name="e_fr_energy">    -39.65873498 </i>
    <i name="e_wo_entrp">    -39.65208627 </i>
    <i name="e_0_energy">    -39.65707281 </i>
   </energy>
  </scstep>
  <scstep>
   <time name="diag">    3.71    3.71</time>
   <time name="diis">   12.82   12.84</time>
   <time name="orth">    0.09    0.09</time>
   <time name="total">   18.88   18.90</time>
   <energy>
    <i name="e_fr_energy">    -39.68172081 </i>
    <i name="e_wo_entrp">    -39.67864721 </i>
    <i name="e_0_energy">    -39.68095241 </i>
   </energy>
  </scstep>
  <scstep>
   <time name="diag">    3.72    3.72</time>
   <time name="diis">   14.08   14.10</time>
   <time name="orth">    0.09    0.09</time>
   <time name="total">   20.14   20.17</time>
   <energy>
    <i name="e_fr_energy">    -39.79832276 </i>
    <i name="e_wo_entrp">    -39.79893420 </i>
    <i name="e_0_energy">    -39.79847562 </i>
   </energy>
  </scstep>
  <scstep>
   <time name="diag">    3.69    3.70</time>
   <time name="diis">   13.60   13.62</time>
   <time name="orth">    0.09    0.09</time>
   <time name="total">   19.64   19.66</time>
   <energy>
    <i name="e_fr_energy">    -39.89056072 </i>
    <i name="e_wo_entrp">    -39.89088407 </i>
    <i name="e_0_energy">    -39.89064156 </i>
   </energy>
  </scstep>
  <scstep>
   <time name="diag">    3.70    3.71</time>
   <time name="diis">   11.17   11.18</time>
   <time name="orth">    0.09    0.09</time>
   <time name="total">   17.22   17.24</time>
   <energy>
    <i name="e_fr_energy">    -39.77090227 </i>
    <i name="e_wo_entrp">    -39.77467125 </i>
    <i name="e_0_energy">    -39.77184452 </i>
   </energy>
  </scstep>
  <scstep>
   <time name="diag">    3.70    3.70</time>
   <time name="diis">   12.12   12.13</time>
   <time name="orth">    0.09    0.09</time>
   <time name="total">   18.16   18.18</time>
   <energy>
    <i name="e_fr_energy">    -39.85619913 </i>
    <i name="e_wo_entrp">    -39.86021481 </i>
    <i name="e_0_energy">    -39.85720305 </i>
   </energy>
  </scstep>
  <scstep>
   <time name="diag">    3.72    3.72</time>
   <time name="diis">   12.85   12.86</time>
   <time name="orth">    0.09    0.09</time>
   <time name="total">   18.91   18.94</time>
   <energy>
    <i name="e_fr_energy">    -40.05319910 </i>
    <i name="e_wo_entrp">    -40.05500061 </i>
    <i name="e_0_energy">    -40.05364948 </i>
   </energy>
  </scstep>
  <scstep>
   <time name="diag">    3.70    3.70</time>
   <time name="diis">   14.58   14.60</time>
   <time name="orth">    0.09    0.09</time>
   <time name="total">   20.62   20.65</time>
   <energy>
    <i name="e_fr_energy">    -40.06529924 </i>
    <i name="e_wo_entrp">    -40.06706996 </i>
    <i name="e_0_energy">    -40.06574192 </i>
   </energy>
  </scstep>
  <scstep>
   <time name="diag">    3.69    3.69</time>
   <time name="diis">   11.92   11.93</time>
   <time name="orth">    0.09    0.09</time>
   <time name="total">   17.95   17.97</time>
   <energy>
    <i name="e_fr_energy">    -40.16924050 </i>
    <i name="e_wo_entrp">    -40.16927224 </i>
    <i name="e_0_energy">    -40.16924843 </i>
   </energy>
  </scstep>
  <scstep>
   <time name="diag">    3.73    3.73</time>
   <time name="diis">   12.66   12.68</time>
   <time name="orth">    0.09    0.09</time>
   <time name="total">   18.74   18.76</time>
   <energy>
    <i name="e_fr_energy">    -40.20022726 </i>
    <i name="e_wo_entrp">    -40.19942090 </i>
    <i name="e_0_energy">    -40.20002567 </i>
   </energy>
  </scstep>
  <scstep>
   <time name="diag">    3.71    3.71</time>
   <time name="diis">   11.25   11.26</time>
   <time name="orth">    0.09    0.09</time>
   <time name="total">   17.30   17.32</time>
   <energy>
    <i name="e_fr_energy">    -40.23207232 </i>
    <i name="e_wo_entrp">    -40.23152068 </i>
    <i name="e_0_energy">    -40.23193441 </i>
   </energy>
  </scstep>
  <scstep>
   <time name="diag">    3.70    3.70</time>
   <time name="diis">   13.72   13.74</time>
   <time name="orth">    0.09    0.09</time>
   <time name="total">   19.78   19.80</time>
   <energy>
    <i name="e_fr_energy">    -40.25504188 </i>
    <i name="e_wo_entrp">    -40.25544235 </i>
    <i name="e_0_energy">    -40.25514199 </i>
   </energy>
  </scstep>
  <scstep>
   <time name="diag">    3.72    3.72</time>
   <time name="diis">   11.25   11.26</time>
   <time name="orth">    0.09    0.09</time>
   <time name="total">   17.33   17.35</time>
   <energy>
    <i name="e_fr_energy">    -40.25352555 </i>
    <i name="e_wo_entrp">    -40.25329918 </i>
    <i name="e_0_energy">    -40.25346896 </i>
   </energy>
  </scstep>
  <scstep>
   <time name="diag">    3.70    3.70</time>
   <time name="diis">   11.50   11.51</time>
   <time name="orth">    0.09    0.09</time>
   <time name="total">   17.54   17.56</time>
   <energy>
    <i name="e_fr_energy">    -40.00120413 </i>
    <i name="e_wo_entrp">    -40.00360488 </i>
    <i name="e_0_energy">    -40.00180432 </i>
   </energy>
  </scstep>
  <scstep>
   <time name="diag">    3.69    3.70</time>
   <time name="diis">   12.72   12.73</time>
   <time name="orth">    0.09    0.09</time>
   <time name="total">   18.76   18.79</time>
   <energy>
    <i name="e_fr_energy">    -39.81986241 </i>
    <i name="e_wo_entrp">    -39.82222380 </i>
    <i name="e_0_energy">    -39.82045276 </i>
   </energy>
  </scstep>
  <scstep>
   <time name="diag">    3.74    3.74</time>
   <time name="diis">   13.57   13.59</time>
   <time name="orth">    0.09    0.09</time>
   <time name="total">   19.68   19.70</time>
   <energy>
    <i name="e_fr_energy">    -39.74008166 </i>
    <i name="e_wo_entrp">    -39.74220714 </i>
    <i name="e_0_energy">    -39.74061303 </i>
   </energy>
  </scstep>
  <scstep>
   <time name="diag">    3.70    3.71</time>
   <time name="diis">   14.71   14.73</time>
   <time name="orth">    0.09    0.09</time>
   <time name="total">   20.77   20.80</time>
   <energy>
    <i name="e_fr_energy">    -39.75676842 </i>
    <i name="e_wo_entrp">    -39.75892057 </i>
    <i name="e_0_energy">    -39.75730646 </i>
   </energy>
  </scstep>
  <scstep>
   <time name="diag">    3.74    3.74</time>
   <time name="diis">   14.59   14.61</time>
   <time name="orth">    0.09    0.09</time>
   <time name="total">   20.70   20.73</time>
   <energy>
    <i name="e_fr_energy">    -39.76120619 </i>
    <i name="e_wo_entrp">    -39.76339804 </i>
    <i name="e_0_energy">    -39.76175415 </i>
   </energy>
  </scstep>
  <scstep>
   <time name="diag">    3.73    3.74</time>
   <time name="diis">   11.31   11.32</time>
   <time name="orth">    0.09    0.09</time>
   <time name="total">   17.42   17.44</time>
   <energy>
    <i name="e_fr_energy">    -39.83345624 </i>
    <i name="e_wo_entrp">    -39.83528607 </i>
    <i name="e_0_energy">    -39.83391370 </i>
   </energy>
  </scstep>
  <scstep>
   <time name="diag">    3.72    3.73</time>
   <time name="diis">   11.59   11.60</time>
   <time name="orth">    0.09    0.09</time>
   <time name="total">   17.69   17.71</time>
   <energy>
    <i name="e_fr_energy">    -40.19764679 </i>
    <i name="e_wo_entrp">    -40.19816067 </i>
    <i name="e_0_energy">    -40.19777526 </i>
   </energy>
  </scstep>
  <scstep>
   <time name="diag">    3.75    3.75</time>
   <time name="diis">   12.42   12.44</time>
   <time name="orth">    0.09    0.09</time>
   <time name="total">   18.55   18.57</time>
   <energy>
    <i name="e_fr_energy">    -40.39667436 </i>
    <i name="e_wo_entrp">    -40.39852395 </i>
    <i name="e_0_energy">    -40.39713676 </i>
   </energy>
  </scstep>
  <scstep>
   <time name="diag">    3.73    3.74</time>
   <time name="diis">   12.63   12.65</time>
   <time name="orth">    0.09    0.09</time>
   <time name="total">   18.74   18.77</time>
   <energy>
    <i name="e_fr_energy">    -40.63308340 </i>
    <i name="e_wo_entrp">    -40.63418803 </i>
    <i name="e_0_energy">    -40.63335956 </i>
   </energy>
  </scstep>
  <scstep>
   <time name="diag">    3.74    3.74</time>
   <time name="diis">   12.67   12.69</time>
   <time name="orth">    0.09    0.09</time>
   <time name="total">   18.80   18.82</time>
   <energy>
    <i name="e_fr_energy">    -40.75304251 </i>
    <i name="e_wo_entrp">    -40.75358585 </i>
    <i name="e_0_energy">    -40.75317835 </i>
   </energy>
  </scstep>
  <scstep>
   <time name="diag">    3.72    3.73</time>
   <time name="diis">   13.56   13.57</time>
   <time name="orth">    0.09    0.09</time>
   <time name="total">   19.66   19.69</time>
   <energy>
    <i name="e_fr_energy">    -40.79708522 </i>
    <i name="e_wo_entrp">    -40.79728763 </i>
    <i name="e_0_energy">    -40.79713582 </i>
   </energy>
  </scstep>
  <scstep>
   <time name="diag">    3.73    3.74</time>
   <time name="diis">   12.41   12.42</time>
   <time name="orth">    0.09    0.09</time>
   <time name="total">   18.52   18.55</time>
   <energy>
    <i name="e_fr_energy">    -40.77536510 </i>
    <i name="e_wo_entrp">    -40.77607786 </i>
    <i name="e_0_energy">    -40.77554329 </i>
   </energy>
  </scstep>
  <scstep>
   <time name="diag">    3.74    3.74</time>
   <time name="diis">   11.64   11.66</time>
   <time name="orth">    0.09    0.09</time>
   <time name="total">   17.77   17.79</time>
   <energy>
    <i name="e_fr_energy">    -40.88558829 </i>
    <i name="e_wo_entrp">    -40.88608168 </i>
    <i name="e_0_energy">    -40.88571164 </i>
   </energy>
  </scstep>
  <scstep>
   <time name="diag">    3.71    3.71</time>
   <time name="diis">   13.49   13.51</time>
   <time name="orth">    0.09    0.09</time>
   <time name="total">   19.59   19.61</time>
   <energy>
    <i name="e_fr_energy">    -40.91664034 </i>
    <i name="e_wo_entrp">    -40.91718401 </i>
    <i name="e_0_energy">    -40.91677625 </i>
   </energy>
  </scstep>
  <scstep>
   <time name="diag">    3.70    3.71</time>
   <time name="diis">   11.24   11.26</time>
   <time name="orth">    0.09    0.09</time>
   <time name="total">   17.33   17.35</time>
   <energy>
    <i name="e_fr_energy">    -40.87901961 </i>
    <i name="e_wo_entrp">    -40.87961748 </i>
    <i name="e_0_energy">    -40.87916908 </i>
   </energy>
  </scstep>
  <scstep>
   <time name="diag">    3.73    3.73</time>
   <time name="diis">   12.34   12.35</time>
   <time name="orth">    0.09    0.09</time>
   <time name="total">   18.46   18.49</time>
   <energy>
    <i name="e_fr_energy">    -40.87244256 </i>
    <i name="e_wo_entrp">    -40.87418003 </i>
    <i name="e_0_energy">    -40.87287693 </i>
   </energy>
  </scstep>
  <scstep>
   <time name="diag">    3.70    3.71</time>
   <time name="diis">   12.65   12.67</time>
   <time name="orth">    0.09    0.09</time>
   <time name="total">   18.75   18.77</time>
   <energy>
    <i name="e_fr_energy">    -40.81551809 </i>
    <i name="e_wo_entrp">    -40.81867578 </i>
    <i name="e_0_energy">    -40.81630751 </i>
   </energy>
  </scstep>
  <scstep>
   <time name="diag">    3.70    3.71</time>
   <time name="diis">   12.03   12.04</time>
   <time name="orth">    0.09    0.09</time>
   <time name="total">   18.13   18.15</time>
   <energy>
    <i name="e_fr_energy">    -40.88600208 </i>
    <i name="e_wo_entrp">    -40.88757408 </i>
    <i name="e_0_energy">    -40.88639508 </i>
   </energy>
  </scstep>
  <scstep>
   <time name="diag">    3.73    3.74</time>
   <time name="diis">   12.34   12.36</time>
   <time name="orth">    0.09    0.09</time>
   <time name="total">   18.47   18.50</time>
   <energy>
    <i name="e_fr_energy">    -40.98204292 </i>
    <i name="e_wo_entrp">    -40.98209612 </i>
    <i name="e_0_energy">    -40.98205622 </i>
   </energy>
  </scstep>
  <scstep>
   <time name="diag">    3.72    3.72</time>
   <time name="diis">   12.28   12.30</time>
   <time name="orth">    0.09    0.09</time>
   <time name="total">   18.40   18.42</time>
   <energy>
    <i name="e_fr_energy">    -41.05120793 </i>
    <i name="e_wo_entrp">    -41.04999936 </i>
    <i name="e_0_energy">    -41.05090579 </i>
   </energy>
  </scstep>
  <scstep>
   <time name="diag">    3.71    3.71</time>
   <time name="diis">   13.74   13.75</time>
   <time name="orth">    0.09    0.09</time>
   <time name="total">   17.90   17.92</time>
   <energy>
    <i name="alphaZ">    116.24230980 </i>
    <i name="ewald">   6282.45156942 </i>
    <i name="hartreedc">  -9866.81370396 </i>
    <i name="XCdc">     20.72355399 </i>
    <i name="pawpsdc">   3742.77440560 </i>
    <i name="pawaedc">  -3792.66440284 </i>
    <i name="eentropy">     -0.00247275 </i>
    <i name="bandstr">   -109.57072954 </i>
    <i name="atom">   3565.76896863 </i>
    <i name="e_fr_energy">    -41.09050165 </i>
    <i name="e_wo_entrp">    -41.08802890 </i>
    <i name="e_0_energy">    -41.08988346 </i>
   </energy>
  </scstep>
  <structure>
   <crystal>
    <varray name="basis" >
     <v>       3.98651217       0.00000000       0.00000000 </v>
     <v>       0.00000000       2.81888979       0.00000000 </v>
     <v>       0.00000000       0.00000000      19.04722447 </v>
    </varray>
    <i name="volume">    214.04391742 </i>
    <varray name="rec_basis" >
     <v>       0.25084584       0.00000000       0.00000000 </v>
     <v>       0.00000000       0.35474959       0.00000000 </v>
     <v>       0.00000000       0.00000000       0.05250109 </v>
    </varray>
   </crystal>
   <varray name="positions" >
    <v>       0.00000000       0.00000000       0.00000000 </v>
    <v>       0.35355339       0.50000000       0.07399739 </v>
    <v>       0.00000000       0.00000000       0.14799478 </v>
    <v>       0.35355339       0.50000000       0.22199217 </v>
    <v>       0.00000000       0.00000000       0.29598956 </v>
    <v>       0.35355339       0.50000000       0.36998695 </v>
   </varray>
  </structure>
  <varray name="forces" >
   <v>       0.16542236       0.00000000       1.78358053 </v>
   <v>       0.13837655       0.00000000      -0.34860653 </v>
   <v>       0.23496684       0.00000000       0.09445536 </v>
   <v>      -0.13505117       0.00000000      -0.27811641 </v>
   <v>      -0.19632574       0.00000000       0.41064127 </v>
   <v>      -0.20738883       0.00000000      -1.66195421 </v>
  </varray>
  <varray name="stress" >
   <v>    -149.75214608       0.00000000      -1.85682891 </v>
   <v>       0.00000000    -134.80468515       0.00000000 </v>
   <v>      -1.85682895       0.00000000    -160.50351924 </v>
  </varray>
  <energy>
   <i name="e_fr_energy">    -41.09050165 </i>
   <i name="e_wo_entrp">    -41.08988346 </i>
   <i name="e_0_energy">     -0.00247275 </i>
  </energy>
  <time name="totalsc"> 1097.03 1098.29</time>
 </calculation>
 <calculation>
  <scstep>
   <time name="dav">   13.70   13.72</time>
   <time name="total">   15.93   15.95</time>
   <energy>
    <i name="alphaZ">    116.24230980 </i>
    <i name="ewald">   6381.44321598 </i>
    <i name="hartreedc">  -9961.93229157 </i>
    <i name="XCdc">     21.32587769 </i>
    <i name="pawpsdc">   3746.49965038 </i>
    <i name="pawaedc">  -3796.71311148 </i>
    <i name="eentropy">     -0.00365935 </i>
    <i name="bandstr">   -113.70338836 </i>
    <i name="atom">   3565.76896863 </i>
    <i name="e_fr_energy">    -41.07242827 </i>
    <i name="e_wo_entrp">    -41.06876892 </i>
    <i name="e_0_energy">    -41.07151343 </i>
   </energy>
  </scstep>
  <scstep>
   <time name="diag">    3.72    3.72</time>
   <time name="diis">   11.45   11.46</time>
   <time name="orth">    0.09    0.09</time>
   <time name="total">   17.51   17.53</time>
   <energy>
    <i name="e_fr_energy">    -44.75290767 </i>
    <i name="e_wo_entrp">    -44.75225799 </i>
    <i name="e_0_energy">    -44.75274525 </i>
   </energy>
  </scstep>
  <scstep>
   <time name="diag">    3.70    3.71</time>
   <time name="diis">   10.96   10.97</time>
   <time name="orth">    0.09    0.09</time>
   <time name="total">   16.99   17.01</time>
   <energy>
    <i name="e_fr_energy">    -41.19387792 </i>
    <i name="e_wo_entrp">    -41.19562024 </i>
    <i name="e_0_energy">    -41.19431350 </i>
   </energy>
  </scstep>
  <scstep>
   <time name="diag">    3.72    3.73</time>
   <time name="diis">   12.00   12.02</time>
   <time name="orth">    0.09    0.09</time>
   <time name="total">   18.06   18.08</time>
   <energy>
    <i name="e_fr_energy">    -41.72652658 </i>
    <i name="e_wo_entrp">    -41.71742646 </i>
    <i name="e_0_energy">    -41.72425155 </i>
   </energy>
  </scstep>
  <scstep>
   <time name="diag">    3.72    3.73</time>
   <time name="diis">   11.39   11.40</time>
   <time name="orth">    0.09    0.09</time>
   <time name="total">   17.44   17.47</time>
   <energy>
    <i name="e_fr_energy">    -41.50600458 </i>
    <i name="e_wo_entrp">    -41.50910605 </i>
    <i name="e_0_energy">    -41.50677995 </i>
   </energy>
  </scstep>
  <scstep>
   <time name="diag">    3.74    3.74</time>
   <time name="diis">   12.52   12.54</time>
   <time name="orth">    0.09    0.09</time>
   <time name="total">   18.60   18.63</time>
   <energy>
    <i name="e_fr_energy">    -41.58431076 </i>
    <i name="e_wo_entrp">    -41.58632591 </i>
    <i name="e_0_energy">    -41.58481455 </i>
   </energy>
  </scstep>
  <scstep>
   <time name="diag">    3.74    3.74</time>
   <time name="diis">   11.24   11.25</time>
   <time name="orth">    0.09    0.09</time>
   <time name="total">   17.30   17.32</time>
   <energy>
    <i name="e_fr_energy">    -41.42959605 </i>
    <i name="e_wo_entrp">    -41.42595121 </i>
    <i name="e_0_energy">    -41.42868484 </i>
   </energy>
  </scstep>
  <scstep>
   <time name="diag">    3.72    3.72</time>
   <time name="diis">   11.57   11.59</time>
   <time name="orth">    0.09    0.09</time>
   <time name="total">   17.62   17.64</time>
   <energy>
    <i name="e_fr_energy">    -41.37998669 </i>
    <i name="e_wo_entrp">    -41.37563948 </i>
    <i name="e_0_energy">    -41.37889988 </i>
   </energy>
  </scstep>
  <scstep>
   <time name="diag">    3.73    3.73</time>
   <time name="diis">   11.24   11.26</time>
   <time name="orth">    0.09    0.09</time>
   <time name="total">   17.30   17.32</time>
   <energy>
    <i name="e_fr_energy">    -41.18060688 </i>
    <i name="e_wo_entrp">    -41.17746230 </i>
    <i name="e_0_energy">    -41.17982073 </i>
   </energy>
  </scstep>
  <scstep>
   <time name="diag">    3.74    3.75</time>
   <time name="diis">   12.03   12.04</time>
   <time name="orth">    0.09    0.09</time>
   <time name="total">   18.10   18.13</time>
   <energy>
    <i name="e_fr_energy">    -41.15202928 </i>
    <i name="e_wo_entrp">    -41.14945629 </i>
    <i name="e_0_energy">    -41.15138603 </i>
   </energy>
  </scstep>
  <scstep>
   <time name="diag">    3.70    3.70</time>
   <time name="diis">   11.28   11.29</time>
   <time name="orth">    0.09    0.09</time>
   <time name="total">   17.30   17.32</time>
   <energy>
    <i name="e_fr_energy">    -41.10147439 </i>
    <i name="e_wo_entrp">    -41.10061081 </i>
    <i name="e_0_energy">    -41.10125849 </i>
   </energy>
  </scstep>
  <scstep>
   <time name="diag">    3.70    3.70</time>
   <time name="diis">   11.92   11.93</time>
   <time name="orth">    0.09    0.09</time>
   <time name="total">   17.96   17.99</time>
   <energy>
    <i name="e_fr_energy">    -40.93604438 </i>
    <i name="e_wo_entrp">    -40.93857221 </i>
    <i name="e_0_energy">    -40.93667634 </i>
   </energy>
  </scstep>
  <scstep>
   <time name="diag">    3.72    3.72</time>
   <time name="diis">   11.08   11.09</time>
   <time name="orth">    0.09    0.09</time>
   <time name="total">   17.14   17.15</time>
   <energy>
    <i name="e_fr_energy">    -41.13594475 </i>
    <i name="e_wo_entrp">    -41.13539144 </i>
    <i name="e_0_energy">    -41.13580643 </i>
   </energy>
  </scstep>
  <scstep>
   <time name="diag">    3.72    3.73</time>
   <time name="diis">   11.32   11.33</time>
   <time name="orth">    0.09    0.09</time>
   <time name="total">   17.38   17.40</time>
   <energy>
    <i name="e_fr_energy">    -41.39435620 </i>
    <i name="e_wo_entrp">    -41.38742600 </i>
    <i name="e_0_energy">    -41.39262365 </i>
   </energy>
  </scstep>
  <scstep>
   <time name="diag">    3.72    3.73</time>
   <time name="diis">   12.97   12.99</time>
   <time name="orth">    0.09    0.09</time>
   <time name="total">   19.05   19.07</time>
   <energy>
    <i name="e_fr_energy">    -41.59338475 </i>
    <i name="e_wo_entrp">    -41.59328260 </i>
    <i name="e_0_energy">    -41.59335921 </i>
   </energy>
  </scstep>
  <scstep>
   <time name="diag">    3.74    3.74</time>
   <time name="diis">   14.06   14.08</time>
   <time name="orth">    0.09    0.09</time>
   <time name="total">   20.14   20.17</time>
   <energy>
    <i name="e_fr_energy">    -41.66132427 </i>
    <i name="e_wo_entrp">    -41.66398182 </i>
    <i name="e_0_energy">    -41.66198865 </i>
   </energy>
  </scstep>
  <scstep>
   <time name="diag">    3.72    3.73</time>
   <time name="diis">   11.01   11.02</time>
   <time name="orth">    0.09    0.09</time>
   <time name="total">   17.06   17.09</time>
   <energy>
    <i name="e_fr_energy">    -41.55808361 </i>
    <i name="e_wo_entrp">    -41.55663951 </i>
    <i name="e_0_energy">    -41.55772259 </i>
   </energy>
  </scstep>
  <scstep>
   <time name="diag">    3.72    3.73</time>
   <time name="diis">   13.43   13.45</time>
   <time name="orth">    0.09    0.09</time>
   <time name="total">   19.50   19.52</time>
   <energy>
    <i name="e_fr_energy">    -41.54065747 </i>
    <i name="e_wo_entrp">    -41.53866740 </i>
    <i name="e_0_energy">    -41.54015995 </i>
   </energy>
  </scstep>
  <scstep>
   <time name="diag">    3.73    3.73</time>
   <time name="diis">   11.56   11.58</time>
   <time name="orth">    0.09    0.09</time>
   <time name="total">   17.63   17.65</time>
   <energy>
    <i name="e_fr_energy">    -41.47423246 </i>
    <i name="e_wo_entrp">    -41.46891040 </i>
    <i name="e_0_energy">    -41.47290194 </i>
   </energy>
  </scstep>
  <scstep>
   <time name="diag">    3.72    3.72</time>
   <time name="diis">   11.59   11.61</time>
   <time name="orth">    0.09    0.09</time>
   <time name="total">   17.65   17.67</time>
   <energy>
    <i name="e_fr_energy">    -41.37946701 </i>
    <i name="e_wo_entrp">    -41.37838126 </i>
    <i name="e_0_energy">    -41.37919557 </i>
   </energy>
  </scstep>
  <scstep>
   <time name="diag">    3.74    3.74</time>
   <time name="diis">   13.11   13.13</time>
   <time name="orth">    0.09    0.09</time>
   <time name="total">   19.19   19.22</time>
   <energy>
    <i name="e_fr_energy">    -41.35856647 </i>
    <i name="e_wo_entrp">    -41.35966829 </i>
    <i name="e_0_energy">    -41.35884192 </i>
   </energy>
  </scstep>
  <scstep>
   <time name="diag">    3.74    3.74</time>
   <time name="diis">   14.42   14.44</time>
   <time name="orth">    0.09    0.09</time>
   <time name="total">   20.52   20.54</time>
   <energy>
    <i name="e_fr_energy">    -41.36849358 </i>
    <i name="e_wo_entrp">    -41.37114037 </i>
    <i name="e_0_energy">    -41.36915528 </i>
   </energy>
  </scstep>
  <scstep>
   <time name="diag">    3.72    3.73</time>
   <time name="diis">   11.77   11.78</time>
   <time name="orth">    0.09    0.09</time>
   <time name="total">   17.85   17.87</time>
   <energy>
    <i name="e_fr_energy">    -41.30705205 </i>
    <i name="e_wo_entrp">    -41.31258187 </i>
    <i name="e_0_energy">    -41.30843451 </i>
   </energy>
  </scstep>
  <scstep>
   <time name="diag">    3.74    3.74</time>
   <time name="diis">   13.92   13.94</time>
   <time name="orth">    0.09    0.09</time>
   <time name="total">   20.01   20.04</time>
   <energy>
    <i name="e_fr_energy">    -41.33456180 </i>
    <i name="e_wo_entrp">    -41.34055459 </i>
    <i name="e_0_energy">    -41.33606000 </i>
   </energy>
  </scstep>
  <scstep>
   <time name="diag">    3.72    3.73</time>
   <time name="diis">   11.00   11.01</time>
   <time name="orth">    0.09    0.09</time>
   <time name="total">   17.06   17.08</time>
   <energy>
    <i name="e_fr_energy">    -41.45240777 </i>
    <i name="e_wo_entrp">    -41.45232238 </i>
    <i name="e_0_energy">    -41.45238642 </i>
   </energy>
  </scstep>
  <scstep>
   <time name="diag">    3.74    3.75</time>
   <time name="diis">   11.60   11.61</time>
   <time name="orth">    0.09    0.09</time>
   <time name="total">   17.68   17.70</time>
   <energy>
    <i name="e_fr_energy">    -41.75670236 </i>
    <i name="e_wo_entrp">    -41.75776788 </i>
    <i name="e_0_energy">    -41.75696874 </i>
   </energy>
  </scstep>
  <scstep>
   <time name="diag">    3.73    3.74</time>
   <time name="diis">   14.10   14.12</time>
   <time name="orth">    0.09    0.09</time>
   <time name="total">   20.18   20.20</time>
   <energy>
    <i name="e_fr_energy">    -41.94012591 </i>
    <i name="e_wo_entrp">    -41.93694549 </i>
    <i name="e_0_energy">    -41.93933081 </i>
   </energy>
  </scstep>
  <scstep>
   <time name="diag">    3.70    3.71</time>
   <time name="diis">   13.82   13.84</time>
   <time name="orth">    0.09    0.09</time>
   <time name="total">   19.88   19.90</time>
   <energy>
    <i name="e_fr_energy">    -42.06241120 </i>
    <i name="e_wo_entrp">    -42.06075679 </i>
    <i name="e_0_energy">    -42.06199760 </i>
   </energy>
  </scstep>
  <scstep>
   <time name="diag">    3.72    3.73</time>
   <time name="diis">   13.11   13.13</time>
   <time name="orth">    0.09    0.09</time>
   <time name="total">   19.19   19.21</time>
   <energy>
    <i name="e_fr_energy">    -42.05320174 </i>
    <i name="e_wo_entrp">    -42.05027502 </i>
    <i name="e_0_energy">    -42.05247006 </i>
   </energy>
  </scstep>
  <scstep>
   <time name="diag">    3.70    3.70</time>
   <time name="diis">   14.10   14.11</time>
   <time name="orth">    0.09    0.09</time>
   <time name="total">   20.15   20.17</time>
   <energy>
    <i name="e_fr_energy">    -42.05409069 </i>
    <i name="e_wo_entrp">    -42.05129953 </i>
    <i name="e_0_energy">    -42.05339290 </i>
   </energy>
  </scstep>
  <scstep>
   <time name="diag">    3.73    3.73</time>
   <time name="diis">   11.25   11.26</time>
   <time name="orth">    0.09    0.09</time>
   <time name="total">   17.34   17.36</time>
   <energy>
    <i name="e_fr_energy">    -42.03194534 </i>
    <i name="e_wo_entrp">    -42.02824275 </i>
    <i name="e_0_energy">    -42.03101970 </i>
   </energy>
  </scstep>
  <scstep>
   <time name="diag">    3.74    3.75</time>
   <time name="diis">   11.77   11.78</time>
   <time name="orth">    0.09    0.09</time>
   <time name="total">   17.86   17.88</time>
   <energy>
    <i name="e_fr_energy">    -42.05119895 </i>
    <i name="e_wo_entrp">    -42.04746225 </i>
    <i name="e_0_energy">    -42.05026477 </i>
   </energy>
  </scstep>
  <scstep>
   <time name="diag">    3.72    3.72</time>
   <time name="diis">   11.73   11.75</time>
   <time name="orth">    0.09    0.09</time>
   <time name="total">   17.81   17.83</time>
   <energy>
    <i name="e_fr_energy">    -42.07215407 </i>
    <i name="e_wo_entrp">    -42.06864288 </i>
    <i name="e_0_energy">    -42.07127627 </i>
   </energy>
  </scstep>
  <scstep>
   <time name="diag">    3.71    3.71</time>
   <time name="diis">   13.34   13.36</time>
   <time name="orth">    0.09    0.09</time>
   <time name="total">   19.40   19.43</time>
   <energy>
    <i name="e_fr_energy">    -42.05205265 </i>
    <i name="e_wo_entrp">    -42.04998122 </i>
    <i name="e_0_energy">    -42.05153479 </i>
   </energy>
  </scstep>
  <scstep>
   <time name="diag">    3.72    3.73</time>
   <time name="diis">   14.24   14.26</time>
   <time name="orth">    0.09    0.09</time>
   <time name="total">   20.34   20.36</time>
   <energy>
    <i name="e_fr_energy">    -42.04903809 </i>
    <i name="e_wo_entrp">    -42.04722631 </i>
    <i name="e_0_energy">    -42.04858515 </i>
   </energy>
  </scstep>
  <scstep>
   <time name="diag">    3.70    3.71</time>
   <time name="diis">   10.62   10.63</time>
   <time name="orth">    0.09    0.09</time>
   <time name="total">   16.70   16.72</time>
   <energy>
    <i name="e_fr_energy">    -42.05097880 </i>
    <i name="e_wo_entrp">    -42.04912028 </i>
    <i name="e_0_energy">    -42.05051417 </i>
   </energy>
  </scstep>
  <scstep>
   <time name="diag">    3.74    3.74</time>
   <time name="diis">    7.92    7.93</time>
   <time name="orth">    0.09    0.09</time>
   <time name="total">   14.02   14.04</time>
   <energy>
    <i name="e_fr_energy">    -42.05105884 </i>
    <i name="e_wo_entrp">    -42.04920996 </i>
    <i name="e_0_energy">    -42.05059662 </i>
   </energy>
  </scstep>
  <scstep>
   <time name="diag">    3.73    3.73</time>
   <time name="diis">    8.94    8.95</time>
   <time name="orth">    0.09    0.09</time>
   <time name="total">   15.03   15.05</time>
   <energy>
    <i name="e_fr_energy">    -42.05177524 </i>
    <i name="e_wo_entrp">    -42.04994774 </i>
    <i name="e_0_energy">    -42.05131837 </i>
   </energy>
  </scstep>
  <scstep>
   <time name="diag">    3.72    3.72</time>
   <time name="diis">   11.39   11.40</time>
   <time name="orth">    0.09    0.09</time>
   <time name="total">   17.49   17.51</time>
   <energy>
    <i name="e_fr_energy">    -42.06583649 </i>
    <i name="e_wo_entrp">    -42.06372905 </i>
    <i name="e_0_energy">    -42.06530963 </i>
   </energy>
  </scstep>
  <scstep>
   <time name="diag">    3.70    3.70</time>
   <time name="diis">   12.00   12.02</time>
   <time name="orth">    0.09    0.09</time>
   <time name="total">   18.07   18.09</time>
   <energy>
    <i name="e_fr_energy">    -42.11892576 </i>
    <i name="e_wo_entrp">    -42.11686359 </i>
    <i name="e_0_energy">    -42.11841022 </i>
   </energy>
  </scstep>
  <scstep>
   <time name="diag">    3.70    3.71</time>
   <time name="diis">   13.22   13.23</time>
   <time name="orth">    0.09    0.09</time>
   <time name="total">   19.30   19.32</time>
   <energy>
    <i name="e_fr_energy">    -42.10983232 </i>
    <i name="e_wo_entrp">    -42.10811550 </i>
    <i name="e_0_energy">    -42.10940311 </i>
   </energy>
  </scstep>
  <scstep>
   <time name="diag">    3.71    3.71</time>
   <time name="diis">   13.50   13.52</time>
   <time name="orth">    0.09    0.09</time>
   <time name="total">   19.59   19.61</time>
   <energy>
    <i name="e_fr_energy">    -42.09242221 </i>
    <i name="e_wo_entrp">    -42.09226820 </i>
    <i name="e_0_energy">    -42.09238371 </i>
   </energy>
  </scstep>
  <scstep>
   <time name="diag">    3.70    3.70</time>
   <time name="diis">   14.32   14.34</time>
   <time name="orth">    0.09    0.09</time>
   <time name="total">   20.39   20.42</time>
   <energy>
    <i name="e_fr_energy">    -42.09356737 </i>
    <i name="e_wo_entrp">    -42.09353068 </i>
    <i name="e_0_energy">    -42.09355819 </i>
   </energy>
  </scstep>
  <scstep>
   <time name="diag">    3.72    3.73</time>
   <time name="diis">    9.81    9.82</time>
   <time name="orth">    0.09    0.09</time>
   <time name="total">   15.92   15.94</time>
   <energy>
    <i name="e_fr_energy">    -42.09385366 </i>
    <i name="e_wo_entrp">    -42.09389620 </i>
    <i name="e_0_energy">    -42.09386429 </i>
   </energy>
  </scstep>
  <scstep>
   <time name="diag">    3.70    3.70</time>
   <time name="diis">   10.94   10.95</time>
   <time name="orth">    0.09    0.09</time>
   <time name="total">   17.01   17.03</time>
   <energy>
    <i name="e_fr_energy">    -42.10043809 </i>
    <i name="e_wo_entrp">    -42.09976018 </i>
    <i name="e_0_energy">    -42.10026861 </i>
   </energy>
  </scstep>
  <scstep>
   <time name="diag">    3.70    3.71</time>
   <time name="diis">    8.56    8.57</time>
   <time name="orth">    0.09    0.09</time>
   <time name="total">   14.64   14.66</time>
   <energy>
    <i name="e_fr_energy">    -42.10078643 </i>
    <i name="e_wo_entrp">    -42.10007238 </i>
    <i name="e_0_energy">    -42.10060792 </i>
   </energy>
  </scstep>
  <scstep>
   <time name="diag">    3.72    3.73</time>
   <time name="diis">   10.98   10.99</time>
   <time name="orth">    0.09    0.09</time>
   <time name="total">   17.08   17.11</time>
   <energy>
    <i name="e_fr_energy">    -42.08083053 </i>
    <i name="e_wo_entrp">    -42.08126339 </i>
    <i name="e_0_energy">    -42.08093874 </i>
   </energy>
  </scstep>
  <scstep>
   <time name="diag">    3.73    3.73</time>
   <time name="diis">   11.52   11.53</time>
   <time name="orth">    0.09    0.09</time>
   <time name="total">   17.64   17.66</time>
   <energy>
    <i name="e_fr_energy">    -42.11858909 </i>
    <i name="e_wo_entrp">    -42.11674376 </i>
    <i name="e_0_energy">    -42.11812776 </i>
   </energy>
  </scstep>
  <scstep>
   <time name="diag">    3.75    3.75</time>
   <time name="diis">   12.06   12.08</time>
   <time name="orth">    0.09    0.09</time>
   <time name="total">   18.20   18.23</time>
   <energy>
    <i name="e_fr_energy">    -42.13147502 </i>
    <i name="e_wo_entrp">    -42.12913128 </i>
    <i name="e_0_energy">    -42.13088908 </i>
   </energy>
  </scstep>
  <scstep>
   <time name="diag">    3.72    3.72</time>
   <time name="diis">   11.45   11.46</time>
   <time name="orth">    0.09    0.09</time>
   <time name="total">   17.55   17.57</time>
   <energy>
    <i name="e_fr_energy">    -42.13042761 </i>
    <i name="e_wo_entrp">    -42.12831739 </i>
    <i name="e_0_energy">    -42.12990005 </i>
   </energy>
  </scstep>
  <scstep>
   <time name="diag">    3.71    3.72</time>
   <time name="diis">   13.55   13.56</time>
   <time name="orth">    0.09    0.09</time>
   <time name="total">   19.66   19.69</time>
   <energy>
    <i name="e_fr_energy">    -42.12922450 </i>
    <i name="e_wo_entrp">    -42.12698025 </i>
    <i name="e_0_energy">    -42.12866344 </i>
   </energy>
  </scstep>
  <scstep>
   <time name="diag">    3.74    3.75</time>
   <time name="diis">   11.52   11.54</time>
   <time name="orth">    0.09    0.09</time>
   <time name="total">   17.64   17.67</time>
   <energy>
    <i name="e_fr_energy">    -42.11898750 </i>
    <i name="e_wo_entrp">    -42.11744978 </i>
    <i name="e_0_energy">    -42.11860307 </i>
   </energy>
  </scstep>
  <scstep>
   <time name="diag">    3.73    3.73</time>
   <time name="diis">   11.81   11.82</time>
   <time name="orth">    0.09    0.09</time>
   <time name="total">   17.92   17.94</time>
   <energy>
    <i name="e_fr_energy">    -42.06804942 </i>
    <i name="e_wo_entrp">    -42.07198627 </i>
    <i name="e_0_energy">    -42.06903363 </i>
   </energy>
  </scstep>
  <scstep>
   <time name="diag">    3.73    3.73</time>
   <time name="diis">   12.43   12.45</time>
   <time name="orth">    0.09    0.09</time>
   <time name="total">   18.55   18.58</time>
   <energy>
    <i name="e_fr_energy">    -41.97529010 </i>
    <i name="e_wo_entrp">    -41.97201118 </i>
    <i name="e_0_energy">    -41.97447037 </i>
   </energy>
  </scstep>
  <scstep>
   <time name="diag">    3.73    3.74</time>
   <time name="diis">   14.29   14.31</time>
   <time name="orth">    0.09    0.09</time>
   <time name="total">   20.41   20.43</time>
   <energy>
    <i name="e_fr_energy">    -41.99756072 </i>
    <i name="e_wo_entrp">    -41.99539915 </i>
    <i name="e_0_energy">    -41.99702032 </i>
   </energy>
  </scstep>
  <scstep>
   <time name="diag">    3.72    3.73</time>
   <time name="diis">   14.00   14.02</time>
   <time name="orth">    0.09    0.09</time>
   <time name="total">   20.11   20.14</time>
   <energy>
    <i name="e_fr_energy">    -41.99593340 </i>
    <i name="e_wo_entrp">    -41.99362310 </i>
    <i name="e_0_energy">    -41.99535583 </i>
   </energy>
  </scstep>
  <scstep>
   <time name="diag">    3.72    3.73</time>
   <time name="diis">   11.03   11.05</time>
   <time name="orth">    0.09    0.09</time>
   <time name="total">   17.16   17.18</time>
   <energy>
    <i name="e_fr_energy">    -42.08219851 </i>
    <i name="e_wo_entrp">    -42.08627506 </i>
    <i name="e_0_energy">    -42.08321765 </i>
   </energy>
  </scstep>
  <scstep>
   <time name="diag">    3.72    3.72</time>
   <time name="diis">   10.88   10.89</time>
   <time name="orth">    0.09    0.09</time>
   <time name="total">   16.98   17.00</time>
   <energy>
    <i name="e_fr_energy">    -41.99778027 </i>
    <i name="e_wo_entrp">    -41.99590252 </i>
    <i name="e_0_energy">    -41.99731083 </i>
   </energy>
  </scstep>
  <scstep>
   <time name="diag">    3.72    3.72</time>
   <time name="diis">   11.24   11.26</time>
   <time name="orth">    0.09    0.09</time>
   <time name="total">   17.33   17.36</time>
   <energy>
    <i name="e_fr_energy">    -42.03359357 </i>
    <i name="e_wo_entrp">    -42.03530291 </i>
    <i name="e_0_energy">    -42.03402090 </i>
   </energy>
  </scstep>
  <scstep>
   <time name="diag">    3.71    3.71</time>
   <time name="diis">   13.48   13.50</time>
   <time name="orth">    0.09    0.09</time>
   <time name="total">   17.64   17.66</time>
   <energy>
    <i name="alphaZ">    116.24230980 </i>
    <i name="ewald">   6381.44321598 </i>
    <i name="hartreedc">  -9957.72878069 </i>
    <i name="XCdc">     22.06957456 </i>
    <i name="pawpsdc">   3778.90259110 </i>
    <i name="pawaedc">  -3830.04195221 </i>
    <i name="eentropy">      0.00220556 </i>
    <i name="bandstr">   -118.69821546 </i>
    <i name="atom">   3565.76896863 </i>
    <i name="e_fr_energy">    -42.04008273 </i>
    <i name="e_wo_entrp">    -42.04228829 </i>
    <i name="e_0_energy">    -42.04063412 </i>
   </energy>
  </scstep>
  <structure>
   <crystal>
    <varray name="basis" >
     <v>       3.98651217       0.00000000       0.00000000 </v>
     <v>       0.00000000       2.81888979       0.00000000 </v>
     <v>       0.00000000       0.00000000      19.04722447 </v>
    </varray>
    <i name="volume">    214.04391742 </i>
    <varray name="rec_basis" >
     <v>       0.25084584       0.00000000       0.00000000 </v>
     <v>       0.00000000       0.35474959       0.00000000 </v>
     <v>       0.00000000       0.00000000       0.05250109 </v>
    </varray>
   </crystal>
   <varray name="positions" >
    <v>       0.00000000       0.00000000       0.00000000 </v>
    <v>       0.35355339       0.50000000       0.07399739 </v>
    <v>       0.00284344       0.00000000       0.14823402 </v>
    <v>       0.35191907       0.50000000       0.22128776 </v>
    <v>      -0.00237583       0.00000000       0.29702963 </v>
    <v>       0.35104368       0.50000000       0.36577757 </v>
   </varray>
  </structure>
  <varray name="forces" >
   <v>       0.18477480       0.00000000       1.41036808 </v>
   <v>       0.33284456       0.00000000      -0.56200857 </v>
   <v>      -0.07597984       0.00000000       0.77236765 </v>
   <v>      -0.23367092       0.00000000      -0.46474279 </v>
   <v>      -0.32781570       0.00000000      -0.03256544 </v>
   <v>       0.11984710       0.00000000      -1.12341892 </v>
  </varray>
  <varray name="stress" >
   <v>    -112.70266674       0.00000000     -13.51216174 </v>
   <v>       0.00000000     -98.10312249       0.00000000 </v>
   <v>     -13.51216180       0.00000000     -94.81847895 </v>
  </varray>
  <energy>
   <i name="e_fr_energy">    -42.04008273 </i>
   <i name="e_wo_entrp">    -42.04063412 </i>
   <i name="e_0_energy">      0.00220556 </i>
  </energy>
  <time name="totalsc"> 1091.00 1092.36</time>
 </calculation>
 <calculation>
  <scstep>
   <time name="dav">   13.17   13.19</time>
   <time name="total">   15.40   15.42</time>
   <energy>
    <i name="alphaZ">    116.24230980 </i>
    <i name="ewald">   6579.25201841 </i>
    <i name="hartreedc"> -10154.29732043 </i>
    <i name="XCdc">     23.40503235 </i>
    <i name="pawpsdc">   3779.03117049 </i>
    <i name="pawaedc">  -3830.17911962 </i>
    <i name="eentropy">      0.00121374 </i>
    <i name="bandstr">   -119.51247764 </i>
    <i name="atom">   3565.76896863 </i>
    <i name="e_fr_energy">    -40.28820425 </i>
    <i name="e_wo_entrp">    -40.28941800 </i>
    <i name="e_0_energy">    -40.28850769 </i>
   </energy>
  </scstep>
  <scstep>
   <time name="diag">    3.74    3.75</time>
   <time name="diis">   11.04   11.05</time>
   <time name="orth">    0.09    0.09</time>
   <time name="total">   17.12   17.14</time>
   <energy>
    <i name="e_fr_energy">    -45.97343734 </i>
    <i name="e_wo_entrp">    -45.97273193 </i>
    <i name="e_0_energy">    -45.97326098 </i>
   </energy>
  </scstep>
  <scstep>
   <time name="diag">    3.73    3.73</time>
   <time name="diis">   10.91   10.92</time>
   <time name="orth">    0.09    0.09</time>
   <time name="total">   16.96   16.98</time>
   <energy>
    <i name="e_fr_energy">    -42.08008013 </i>
    <i name="e_wo_entrp">    -42.08366643 </i>
    <i name="e_0_energy">    -42.08097670 </i>
   </energy>
  </scstep>
  <scstep>
   <time name="diag">    3.73    3.73</time>
   <time name="diis">   11.01   11.02</time>
   <time name="orth">    0.09    0.09</time>
   <time name="total">   17.06   17.08</time>
   <energy>
    <i name="e_fr_energy">    -42.19964294 </i>
    <i name="e_wo_entrp">    -42.20034204 </i>
    <i name="e_0_energy">    -42.19981772 </i>
   </energy>
  </scstep>
  <scstep>
   <time name="diag">    3.72    3.72</time>
   <time name="diis">   11.10   11.11</time>
   <time name="orth">    0.09    0.09</time>
   <time name="total">   17.14   17.16</time>
   <energy>
    <i name="e_fr_energy">    -42.12958582 </i>
    <i name="e_wo_entrp">    -42.13346342 </i>
    <i name="e_0_energy">    -42.13055522 </i>
   </energy>
  </scstep>
  <scstep>
   <time name="diag">    3.70    3.71</time>
   <time name="diis">   11.50   11.52</time>
   <time name="orth">    0.09    0.09</time>
   <time name="total">   17.52   17.54</time>
   <energy>
    <i name="e_fr_energy">    -42.11801316 </i>
    <i name="e_wo_entrp">    -42.12123049 </i>
    <i name="e_0_energy">    -42.11881749 </i>
   </energy>
  </scstep>
  <scstep>
   <time name="diag">    3.71    3.71</time>
   <time name="diis">   12.44   12.46</time>
   <time name="orth">    0.09    0.09</time>
   <time name="total">   18.48   18.50</time>
   <energy>
    <i name="e_fr_energy">    -42.13113628 </i>
    <i name="e_wo_entrp">    -42.13321553 </i>
    <i name="e_0_energy">    -42.13165610 </i>
   </energy>
  </scstep>
  <scstep>
   <time name="diag">    3.71    3.72</time>
   <time name="diis">   11.58   11.59</time>
   <time name="orth">    0.09    0.09</time>
   <time name="total">   17.61   17.63</time>
   <energy>
    <i name="e_fr_energy">    -42.15259018 </i>
    <i name="e_wo_entrp">    -42.15200490 </i>
    <i name="e_0_energy">    -42.15244386 </i>
   </energy>
  </scstep>
  <scstep>
   <time name="diag">    3.74    3.74</time>
   <time name="diis">   11.33   11.35</time>
   <time name="orth">    0.09    0.09</time>
   <time name="total">   17.42   17.44</time>
   <energy>
    <i name="e_fr_energy">    -42.16506467 </i>
    <i name="e_wo_entrp">    -42.16330978 </i>
    <i name="e_0_energy">    -42.16462595 </i>
   </energy>
  </scstep>
  <scstep>
   <time name="diag">    3.75    3.75</time>
   <time name="diis">   11.40   11.42</time>
   <time name="orth">    0.09    0.09</time>
   <time name="total">   17.48   17.51</time>
   <energy>
    <i name="e_fr_energy">    -42.19836601 </i>
    <i name="e_wo_entrp">    -42.20192494 </i>
    <i name="e_0_energy">    -42.19925574 </i>
   </energy>
  </scstep>
  <scstep>
   <time name="diag">    3.70    3.71</time>
   <time name="diis">   11.06   11.07</time>
   <time name="orth">    0.09    0.09</time>
   <time name="total">   17.09   17.11</time>
   <energy>
    <i name="e_fr_energy">    -42.24471313 </i>
    <i name="e_wo_entrp">    -42.24225010 </i>
    <i name="e_0_energy">    -42.24409737 </i>
   </energy>
  </scstep>
  <scstep>
   <time name="diag">    3.69    3.70</time>
   <time name="diis">   11.00   11.01</time>
   <time name="orth">    0.09    0.09</time>
   <time name="total">   17.01   17.03</time>
   <energy>
    <i name="e_fr_energy">    -42.29820291 </i>
    <i name="e_wo_entrp">    -42.29495196 </i>
    <i name="e_0_energy">    -42.29739017 </i>
   </energy>
  </scstep>
  <scstep>
   <time name="diag">    3.74    3.74</time>
   <time name="diis">   11.60   11.61</time>
   <time name="orth">    0.09    0.09</time>
   <time name="total">   17.67   17.69</time>
   <energy>
    <i name="e_fr_energy">    -42.43181525 </i>
    <i name="e_wo_entrp">    -42.42845179 </i>
    <i name="e_0_energy">    -42.43097439 </i>
   </energy>
  </scstep>
  <scstep>
   <time name="diag">    3.72    3.73</time>
   <time name="diis">   12.05   12.06</time>
   <time name="orth">    0.09    0.09</time>
   <time name="total">   18.11   18.13</time>
   <energy>
    <i name="e_fr_energy">    -42.48920930 </i>
    <i name="e_wo_entrp">    -42.48692712 </i>
    <i name="e_0_energy">    -42.48863876 </i>
   </energy>
  </scstep>
  <scstep>
   <time name="diag">    3.70    3.70</time>
   <time name="diis">   11.31   11.33</time>
   <time name="orth">    0.09    0.09</time>
   <time name="total">   17.33   17.35</time>
   <energy>
    <i name="e_fr_energy">    -42.54969854 </i>
    <i name="e_wo_entrp">    -42.54769095 </i>
    <i name="e_0_energy">    -42.54919664 </i>
   </energy>
  </scstep>
  <scstep>
   <time name="diag">    3.72    3.72</time>
   <time name="diis">   11.56   11.58</time>
   <time name="orth">    0.09    0.09</time>
   <time name="total">   17.61   17.63</time>
   <energy>
    <i name="e_fr_energy">    -42.62019134 </i>
    <i name="e_wo_entrp">    -42.61824430 </i>
    <i name="e_0_energy">    -42.61970458 </i>
   </energy>
  </scstep>
  <scstep>
   <time name="diag">    3.71    3.72</time>
   <time name="diis">   12.95   12.96</time>
   <time name="orth">    0.09    0.09</time>
   <time name="total">   19.00   19.03</time>
   <energy>
    <i name="e_fr_energy">    -42.63307659 </i>
    <i name="e_wo_entrp">    -42.63125491 </i>
    <i name="e_0_energy">    -42.63262117 </i>
   </energy>
  </scstep>
  <scstep>
   <time name="diag">    3.70    3.71</time>
   <time name="diis">   12.16   12.17</time>
   <time name="orth">    0.09    0.09</time>
   <time name="total">   18.20   18.22</time>
   <energy>
    <i name="e_fr_energy">    -42.63207421 </i>
    <i name="e_wo_entrp">    -42.63025560 </i>
    <i name="e_0_energy">    -42.63161956 </i>
   </energy>
  </scstep>
  <scstep>
   <time name="diag">    3.72    3.73</time>
   <time name="diis">   12.84   12.86</time>
   <time name="orth">    0.09    0.09</time>
   <time name="total">   18.91   18.94</time>
   <energy>
    <i name="e_fr_energy">    -42.63230176 </i>
    <i name="e_wo_entrp">    -42.63051303 </i>
    <i name="e_0_energy">    -42.63185458 </i>
   </energy>
  </scstep>
  <scstep>
   <time name="diag">    3.71    3.71</time>
   <time name="diis">   12.00   12.02</time>
   <time name="orth">    0.10    0.10</time>
   <time name="total">   18.04   18.06</time>
   <energy>
    <i name="e_fr_energy">    -42.63330804 </i>
    <i name="e_wo_entrp">    -42.63151821 </i>
    <i name="e_0_energy">    -42.63286058 </i>
   </energy>
  </scstep>
  <scstep>
   <time name="diag">    3.70    3.71</time>
   <time name="diis">   10.68   10.70</time>
   <time name="orth">    0.09    0.09</time>
   <time name="total">   16.71   16.73</time>
   <energy>
    <i name="e_fr_energy">    -42.63574526 </i>
    <i name="e_wo_entrp">    -42.63400036 </i>
    <i name="e_0_energy">    -42.63530903 </i>
   </energy>
  </scstep>
  <scstep>
   <time name="diag">    3.70    3.71</time>
   <time name="diis">    9.65    9.66</time>
   <time name="orth">    0.09    0.09</time>
   <time name="total">   15.69   15.71</time>
   <energy>
    <i name="e_fr_energy">    -42.63852876 </i>
    <i name="e_wo_entrp">    -42.63679275 </i>
    <i name="e_0_energy">    -42.63809476 </i>
   </energy>
  </scstep>
  <scstep>
   <time name="diag">    3.73    3.73</time>
   <time name="diis">    9.28    9.29</time>
   <time name="orth">    0.09    0.09</time>
   <time name="total">   15.37   15.39</time>
   <energy>
    <i name="e_fr_energy">    -42.64030134 </i>
    <i name="e_wo_entrp">    -42.63856692 </i>
    <i name="e_0_energy">    -42.63986774 </i>
   </energy>
  </scstep>
  <scstep>
   <time name="diag">    3.74    3.75</time>
   <time name="diis">    8.96    8.97</time>
   <time name="orth">    0.09    0.09</time>
   <time name="total">   15.06   15.07</time>
   <energy>
    <i name="e_fr_energy">    -42.64142967 </i>
    <i name="e_wo_entrp">    -42.63969171 </i>
    <i name="e_0_energy">    -42.64099518 </i>
   </energy>
  </scstep>
  <scstep>
   <time name="diag">    3.72    3.73</time>
   <time name="diis">    8.22    8.24</time>
   <time name="orth">    0.09    0.09</time>
   <time name="total">   14.28   14.30</time>
   <energy>
    <i name="e_fr_energy">    -42.64172773 </i>
    <i name="e_wo_entrp">    -42.63999028 </i>
    <i name="e_0_energy">    -42.64129337 </i>
   </energy>
  </scstep>
  <scstep>
   <time name="diag">    3.72    3.72</time>
   <time name="diis">    8.14    8.16</time>
   <time name="orth">    0.10    0.09</time>
   <time name="total">   14.21   14.22</time>
   <energy>
    <i name="e_fr_energy">    -42.64201998 </i>
    <i name="e_wo_entrp">    -42.64028836 </i>
    <i name="e_0_energy">    -42.64158708 </i>
   </energy>
  </scstep>
  <scstep>
   <time name="diag">    3.69    3.69</time>
   <time name="diis">    7.73    7.74</time>
   <time name="orth">    0.09    0.09</time>
   <time name="total">   13.78   13.79</time>
   <energy>
    <i name="e_fr_energy">    -42.64205933 </i>
    <i name="e_wo_entrp">    -42.64033125 </i>
    <i name="e_0_energy">    -42.64162731 </i>
   </energy>
  </scstep>
  <scstep>
   <time name="diag">    3.70    3.71</time>
   <time name="diis">    7.33    7.34</time>
   <time name="orth">    0.09    0.09</time>
   <time name="total">   11.49   11.51</time>
   <energy>
    <i name="alphaZ">    116.24230980 </i>
    <i name="ewald">   6579.25201841 </i>
    <i name="hartreedc"> -10145.68204177 </i>
    <i name="XCdc">     23.67220487 </i>
    <i name="pawpsdc">   3859.53367199 </i>
    <i name="pawaedc">  -3912.42247058 </i>
    <i name="eentropy">     -0.00172714 </i>
    <i name="bandstr">   -129.00499856 </i>
    <i name="atom">   3565.76896863 </i>
    <i name="e_fr_energy">    -42.64206434 </i>
    <i name="e_wo_entrp">    -42.64033721 </i>
    <i name="e_0_energy">    -42.64163256 </i>
   </energy>
  </scstep>
  <structure>
   <crystal>
    <varray name="basis" >
     <v>       3.98651217       0.00000000       0.00000000 </v>
     <v>       0.00000000       2.81888979       0.00000000 </v>
     <v>       0.00000000       0.00000000      19.04722447 </v>
    </varray>
    <i name="volume">    214.04391742 </i>
    <varray name="rec_basis" >
     <v>       0.25084584       0.00000000       0.00000000 </v>
     <v>       0.00000000       0.35474959       0.00000000 </v>
     <v>       0.00000000       0.00000000       0.05250109 </v>
    </varray>
   </crystal>
   <varray name="positions" >
    <v>       0.00000000       0.00000000       0.00000000 </v>
    <v>       0.35355339       0.50000000       0.07399739 </v>
    <v>       0.00848581       0.00000000       0.14870874 </v>
    <v>       0.34867602       0.50000000       0.21988997 </v>
    <v>      -0.00709029       0.00000000       0.29909348 </v>
    <v>       0.34606355       0.50000000       0.35742470 </v>
   </varray>
  </structure>
  <varray name="forces" >
   <v>       0.21381078       0.00000000       1.34498783 </v>
   <v>       0.35219791       0.00000000      -0.69719603 </v>
   <v>      -0.63367886       0.00000000       0.45386320 </v>
   <v>       0.39296579       0.00000000      -0.33325910 </v>
   <v>      -0.95722356       0.00000000      -0.62574954 </v>
   <v>       0.63192793       0.00000000      -0.14264635 </v>
  </varray>
  <varray name="stress" >
   <v>     -83.10707424       0.00000000      -5.99177296 </v>
   <v>       0.00000000     -68.75351422       0.00000000 </v>
   <v>      -5.99177314       0.00000000     -43.55201184 </v>
  </varray>
  <energy>
   <i name="e_fr_energy">    -42.64206434 </i>
   <i name="e_wo_entrp">    -42.64163256 </i>
   <i name="e_0_energy">     -0.00172714 </i>
  </energy>
  <time name="totalsc">  476.47  477.05</time>
 </calculation>
 <calculation>
  <scstep>
   <time name="dav">   13.24   13.26</time>
   <time name="total">   15.48   15.50</time>
   <energy>
    <i name="alphaZ">    116.24230980 </i>
    <i name="ewald">   6686.44547029 </i>
    <i name="hartreedc"> -10253.59173025 </i>
    <i name="XCdc">     23.79194947 </i>
    <i name="pawpsdc">   3859.53183865 </i>
    <i name="pawaedc">  -3912.42031766 </i>
    <i name="eentropy">     -0.00307160 </i>
    <i name="bandstr">   -128.26187498 </i>
    <i name="atom">   3565.76896863 </i>
    <i name="e_fr_energy">    -42.49645764 </i>
    <i name="e_wo_entrp">    -42.49338604 </i>
    <i name="e_0_energy">    -42.49568974 </i>
   </energy>
  </scstep>
  <scstep>
   <time name="diag">    3.71    3.71</time>
   <time name="diis">   11.09   11.11</time>
   <time name="orth">    0.09    0.09</time>
   <time name="total">   17.14   17.16</time>
   <energy>
    <i name="e_fr_energy">    -43.14799863 </i>
    <i name="e_wo_entrp">    -43.14906439 </i>
    <i name="e_0_energy">    -43.14826507 </i>
   </energy>
  </scstep>
  <scstep>
   <time name="diag">    3.72    3.72</time>
   <time name="diis">   10.91   10.93</time>
   <time name="orth">    0.09    0.09</time>
   <time name="total">   16.96   16.98</time>
   <energy>
    <i name="e_fr_energy">    -42.84593084 </i>
    <i name="e_wo_entrp">    -42.83996520 </i>
    <i name="e_0_energy">    -42.84443943 </i>
   </energy>
  </scstep>
  <scstep>
   <time name="diag">    3.69    3.70</time>
   <time name="diis">   11.08   11.09</time>
   <time name="orth">    0.09    0.09</time>
   <time name="total">   17.10   17.12</time>
   <energy>
    <i name="e_fr_energy">    -42.84599302 </i>
    <i name="e_wo_entrp">    -42.84010087 </i>
    <i name="e_0_energy">    -42.84451999 </i>
   </energy>
  </scstep>
  <scstep>
   <time name="diag">    3.70    3.71</time>
   <time name="diis">   10.88   10.89</time>
   <time name="orth">    0.09    0.09</time>
   <time name="total">   16.89   16.91</time>
   <energy>
    <i name="e_fr_energy">    -42.71784813 </i>
    <i name="e_wo_entrp">    -42.71438807 </i>
[...]
       <r>     7.9795     0.0000    31.0000 </r>
       <r>     8.0555     0.0000    31.0000 </r>
       <r>     8.1314     0.0000    31.0000 </r>
       <r>     8.2073     0.0000    31.0000 </r>
       <r>     8.2832     0.0000    31.0000 </r>
       <r>     8.3591     0.0000    31.0000 </r>
       <r>     8.4350     0.0000    31.0000 </r>
       <r>     8.5109     0.0000    31.0000 </r>
       <r>     8.5868     0.0000    31.0000 </r>
       <r>     8.6627     0.0000    31.0000 </r>
       <r>     8.7387     0.0000    31.0000 </r>
       <r>     8.8146     0.0000    31.0000 </r>
       <r>     8.8905     0.0000    31.0000 </r>
       <r>     8.9664     0.0000    31.0000 </r>
       <r>     9.0423     0.0000    31.0000 </r>
       <r>     9.1182     0.0000    31.0000 </r>
       <r>     9.1941     0.0000    31.0000 </r>
       <r>     9.2700     0.0000    31.0000 </r>
       <r>     9.3459     0.0000    31.0000 </r>
       <r>     9.4219     0.0000    31.0000 </r>
       <r>     9.4978     0.0000    31.0000 </r>
       <r>     9.5737     0.0000    31.0000 </r>
       <r>     9.6496     0.0000    31.0000 </r>
       <r>     9.7255     0.0000    31.0000 </r>
       <r>     9.8014     0.0000    31.0000 </r>
       <r>     9.8773     0.0000    31.0000 </r>
       <r>     9.9532     0.0000    31.0000 </r>
       <r>    10.0292     0.0000    31.0000 </r>
       <r>    10.1051     0.0000    31.0000 </r>
       <r>    10.1810     0.0000    31.0000 </r>
       <r>    10.2569     0.0000    31.0000 </r>
       <r>    10.3328     0.0000    31.0000 </r>
       <r>    10.4087     0.0000    31.0000 </r>
       <r>    10.4846     0.0000    31.0000 </r>
       <r>    10.5605     0.0000    31.0000 </r>
       <r>    10.6364     0.0000    31.0000 </r>
       <r>    10.7124     0.0000    31.0000 </r>
       <r>    10.7883     0.0000    31.0000 </r>
       <r>    10.8642     0.0000    31.0000 </r>
       <r>    10.9401     0.0000    31.0000 </r>
       <r>    11.0160     0.0000    31.0000 </r>
       <r>    11.0919     0.0000    31.0000 </r>
       <r>    11.1678     0.0000    31.0000 </r>
       <r>    11.2437     0.0000    31.0000 </r>
       <r>    11.3196     0.0000    31.0000 </r>
       <r>    11.3956     0.0000    31.0000 </r>
       <r>    11.4715     0.0000    31.0000 </r>
       <r>    11.5474     0.0000    31.0000 </r>
       <r>    11.6233     0.0000    31.0000 </r>
       <r>    11.6992     0.0000    31.0000 </r>
       <r>    11.7751     0.0000    31.0000 </r>
       <r>    11.8510     0.0000    31.0000 </r>
       <r>    11.9269     0.0000    31.0000 </r>
       <r>    12.0028     0.0000    31.0000 </r>
       <r>    12.0788     0.0000    31.0000 </r>
       <r>    12.1547     0.0000    31.0000 </r>
       <r>    12.2306     0.0000    31.0000 </r>
       <r>    12.3065     0.0000    31.0000 </r>
       <r>    12.3824     0.0000    31.0000 </r>
       <r>    12.4583     0.0000    31.0000 </r>
       <r>    12.5342     0.0000    31.0000 </r>
       <r>    12.6101     0.0000    31.0000 </r>
       <r>    12.6860     0.0000    31.0000 </r>
       <r>    12.7620     0.0000    31.0000 </r>
       <r>    12.8379     0.0000    31.0000 </r>
       <r>    12.9138     0.0000    31.0000 </r>
       <r>    12.9897     0.0000    31.0000 </r>
       <r>    13.0656     0.0000    31.0000 </r>
       <r>    13.1415     0.0000    31.0000 </r>
       <r>    13.2174     0.0000    31.0000 </r>
       <r>    13.2933     0.0000    31.0000 </r>
       <r>    13.3692     0.0000    31.0000 </r>
       <r>    13.4452     0.0000    31.0000 </r>
       <r>    13.5211     0.0000    31.0000 </r>
       <r>    13.5970     0.0000    31.0000 </r>
       <r>    13.6729     0.0000    31.0000 </r>
      </set>
      <set comment="spin 2">
       <r>    -9.1005     0.0000     0.0000 </r>
       <r>    -9.0246     0.0000     0.0000 </r>
       <r>    -8.9487     0.0000     0.0000 </r>
       <r>    -8.8728     0.0000     0.0000 </r>
       <r>    -8.7968     0.0000     0.0000 </r>
       <r>    -8.7209     0.0000     0.0000 </r>
       <r>    -8.6450     0.0000     0.0000 </r>
       <r>    -8.5691     0.0000     0.0000 </r>
       <r>    -8.4932     0.0000     0.0000 </r>
       <r>    -8.4173     0.0000     0.0000 </r>
       <r>    -8.3414     0.0000     0.0000 </r>
       <r>    -8.2655     0.0000     0.0000 </r>
       <r>    -8.1896     0.0000     0.0000 </r>
       <r>    -8.1136     0.0000     0.0000 </r>
       <r>    -8.0377     0.0000     0.0000 </r>
       <r>    -7.9618     0.0002     0.0000 </r>
       <r>    -7.8859     0.0019     0.0002 </r>
       <r>    -7.8100    -0.0090    -0.0005 </r>
       <r>    -7.7341    -0.0058    -0.0010 </r>
       <r>    -7.6582     0.3023     0.0220 </r>
       <r>    -7.5823     0.2597     0.0417 </r>
       <r>    -7.5064    -0.0159     0.0405 </r>
       <r>    -7.4304    -0.0114     0.0396 </r>
       <r>    -7.3545    -0.0464     0.0361 </r>
       <r>    -7.2786     0.4553     0.0707 </r>
       <r>    -7.2027     0.6555     0.1204 </r>
       <r>    -7.1268     0.0165     0.1217 </r>
       <r>    -7.0509    -0.0277     0.1196 </r>
       <r>    -6.9750    -0.0486     0.1159 </r>
       <r>    -6.8991     0.4079     0.1468 </r>
       <r>    -6.8232     0.6876     0.1990 </r>
       <r>    -6.7472     0.0439     0.2024 </r>
       <r>    -6.6713    -0.0540     0.1983 </r>
       <r>    -6.5954    -0.0571     0.1939 </r>
       <r>    -6.5195     1.0943     0.2770 </r>
       <r>    -6.4436     1.1592     0.3650 </r>
       <r>    -6.3677    -0.0378     0.3621 </r>
       <r>    -6.2918    -0.0714     0.3567 </r>
       <r>    -6.2159     0.1220     0.3660 </r>
       <r>    -6.1399     0.7184     0.4205 </r>
       <r>    -6.0640     0.3885     0.4500 </r>
       <r>    -5.9881     0.3248     0.4747 </r>
       <r>    -5.9122     0.0958     0.4819 </r>
       <r>    -5.8363    -0.0675     0.4768 </r>
       <r>    -5.7604     0.1512     0.4883 </r>
       <r>    -5.6845     0.7425     0.5446 </r>
       <r>    -5.6086     0.1533     0.5563 </r>
       <r>    -5.5327     0.8212     0.6186 </r>
       <r>    -5.4567     1.3276     0.7194 </r>
       <r>    -5.3808     0.6772     0.7708 </r>
       <r>    -5.3049     0.4361     0.8039 </r>
       <r>    -5.2290    -0.1073     0.7958 </r>
       <r>    -5.1531     0.1339     0.8059 </r>
       <r>    -5.0772     1.5580     0.9242 </r>
       <r>    -5.0013     1.6230     1.0474 </r>
       <r>    -4.9254     0.7903     1.1074 </r>
       <r>    -4.8495     0.6385     1.1559 </r>
       <r>    -4.7735     1.4990     1.2697 </r>
       <r>    -4.6976     0.8833     1.3367 </r>
       <r>    -4.6217     0.6309     1.3846 </r>
       <r>    -4.5458     1.6197     1.5076 </r>
       <r>    -4.4699     2.8003     1.7201 </r>
       <r>    -4.3940     2.8819     1.9389 </r>
       <r>    -4.3181     2.6946     2.1435 </r>
       <r>    -4.2422     3.5997     2.4167 </r>
       <r>    -4.1663     3.0089     2.6451 </r>
       <r>    -4.0903     2.3583     2.8241 </r>
       <r>    -4.0144     4.9267     3.1981 </r>
       <r>    -3.9385     8.1763     3.8188 </r>
       <r>    -3.8626     3.0178     4.0479 </r>
       <r>    -3.7867     1.0711     4.1292 </r>
       <r>    -3.7108     4.7421     4.4892 </r>
       <r>    -3.6349     2.6825     4.6928 </r>
       <r>    -3.5590     1.9319     4.8395 </r>
       <r>    -3.4831     6.0295     5.2972 </r>
       <r>    -3.4071     5.4982     5.7145 </r>
       <r>    -3.3312     3.8614     6.0077 </r>
       <r>    -3.2553     6.3670     6.4910 </r>
       <r>    -3.1794     2.2288     6.6602 </r>
       <r>    -3.1035     3.3603     6.9153 </r>
       <r>    -3.0276     6.1161     7.3795 </r>
       <r>    -2.9517     8.3910     8.0165 </r>
       <r>    -2.8758     7.4402     8.5813 </r>
       <r>    -2.7999     2.9686     8.8067 </r>
       <r>    -2.7239     4.7695     9.1687 </r>
       <r>    -2.6480     6.1504     9.6356 </r>
       <r>    -2.5721     4.2512     9.9583 </r>
       <r>    -2.4962     3.5831    10.2303 </r>
       <r>    -2.4203     4.2562    10.5534 </r>
       <r>    -2.3444     5.1960    10.9479 </r>
       <r>    -2.2685     5.9074    11.3963 </r>
       <r>    -2.1926     4.7839    11.7594 </r>
       <r>    -2.1167     4.6575    12.1130 </r>
       <r>    -2.0407     2.1626    12.2772 </r>
       <r>    -1.9648     1.0396    12.3561 </r>
       <r>    -1.8889     3.5790    12.6278 </r>
       <r>    -1.8130     4.5505    12.9732 </r>
       <r>    -1.7371     3.3613    13.2284 </r>
       <r>    -1.6612     7.3007    13.7826 </r>
       <r>    -1.5853     4.9011    14.1546 </r>
       <r>    -1.5094     5.8634    14.5997 </r>
       <r>    -1.4335     7.6892    15.1834 </r>
       <r>    -1.3575     6.0458    15.6424 </r>
       <r>    -1.2816     4.2380    15.9641 </r>
       <r>    -1.2057     5.8407    16.4075 </r>
       <r>    -1.1298     4.5217    16.7507 </r>
       <r>    -1.0539     5.2365    17.1482 </r>
       <r>    -0.9780     6.4960    17.6413 </r>
       <r>    -0.9021     6.5861    18.1413 </r>
       <r>    -0.8262     6.1546    18.6085 </r>
       <r>    -0.7502     8.3027    19.2388 </r>
       <r>    -0.6743     9.8621    19.9874 </r>
       <r>    -0.5984     4.7959    20.3515 </r>
       <r>    -0.5225     2.0403    20.5063 </r>
       <r>    -0.4466     3.3049    20.7572 </r>
       <r>    -0.3707     7.1528    21.3002 </r>
       <r>    -0.2948     7.4808    21.8681 </r>
       <r>    -0.2189     6.3945    22.3535 </r>
       <r>    -0.1430     6.8915    22.8766 </r>
       <r>    -0.0670     4.8168    23.2423 </r>
       <r>     0.0089     6.9605    23.7707 </r>
       <r>     0.0848     9.5030    24.4921 </r>
       <r>     0.1607     7.0915    25.0304 </r>
       <r>     0.2366     6.8564    25.5509 </r>
       <r>     0.3125     8.0210    26.1598 </r>
       <r>     0.3884     6.4209    26.6472 </r>
       <r>     0.4643     9.0021    27.3305 </r>
       <r>     0.5402     7.3465    27.8882 </r>
       <r>     0.6162     7.4658    28.4550 </r>
       <r>     0.6921    10.6875    29.2663 </r>
       <r>     0.7680     8.9358    29.9446 </r>
       <r>     0.8439     4.9933    30.3236 </r>
       <r>     0.9198     1.9521    30.4718 </r>
       <r>     0.9957     1.9366    30.6188 </r>
       <r>     1.0716     2.3397    30.7964 </r>
       <r>     1.1475     1.2969    30.8949 </r>
       <r>     1.2234     1.3044    30.9939 </r>
       <r>     1.2994     0.1327    31.0040 </r>
       <r>     1.3753    -0.0627    30.9992 </r>
       <r>     1.4512     0.0091    30.9999 </r>
       <r>     1.5271     0.0013    31.0000 </r>
       <r>     1.6030     0.0000    31.0000 </r>
       <r>     1.6789     0.0000    31.0000 </r>
       <r>     1.7548     0.0000    31.0000 </r>
       <r>     1.8307     0.0000    31.0000 </r>
       <r>     1.9066     0.0000    31.0000 </r>
       <r>     1.9826     0.0000    31.0000 </r>
       <r>     2.0585     0.0000    31.0000 </r>
       <r>     2.1344     0.0000    31.0000 </r>
       <r>     2.2103     0.0000    31.0000 </r>
       <r>     2.2862     0.0000    31.0000 </r>
       <r>     2.3621     0.0000    31.0000 </r>
       <r>     2.4380     0.0000    31.0000 </r>
       <r>     2.5139     0.0000    31.0000 </r>
       <r>     2.5898     0.0000    31.0000 </r>
       <r>     2.6658     0.0000    31.0000 </r>
       <r>     2.7417     0.0000    31.0000 </r>
       <r>     2.8176     0.0000    31.0000 </r>
       <r>     2.8935     0.0000    31.0000 </r>
       <r>     2.9694     0.0000    31.0000 </r>
       <r>     3.0453     0.0000    31.0000 </r>
       <r>     3.1212     0.0000    31.0000 </r>
       <r>     3.1971     0.0000    31.0000 </r>
       <r>     3.2730     0.0000    31.0000 </r>
       <r>     3.3490     0.0000    31.0000 </r>
       <r>     3.4249     0.0000    31.0000 </r>
       <r>     3.5008     0.0000    31.0000 </r>
       <r>     3.5767     0.0000    31.0000 </r>
       <r>     3.6526     0.0000    31.0000 </r>
       <r>     3.7285     0.0000    31.0000 </r>
       <r>     3.8044     0.0000    31.0000 </r>
       <r>     3.8803     0.0000    31.0000 </r>
       <r>     3.9562     0.0000    31.0000 </r>
       <r>     4.0322     0.0000    31.0000 </r>
       <r>     4.1081     0.0000    31.0000 </r>
       <r>     4.1840     0.0000    31.0000 </r>
       <r>     4.2599     0.0000    31.0000 </r>
       <r>     4.3358     0.0000    31.0000 </r>
       <r>     4.4117     0.0000    31.0000 </r>
       <r>     4.4876     0.0000    31.0000 </r>
       <r>     4.5635     0.0000    31.0000 </r>
       <r>     4.6395     0.0000    31.0000 </r>
       <r>     4.7154     0.0000    31.0000 </r>
       <r>     4.7913     0.0000    31.0000 </r>
       <r>     4.8672     0.0000    31.0000 </r>
       <r>     4.9431     0.0000    31.0000 </r>
       <r>     5.0190     0.0000    31.0000 </r>
       <r>     5.0949     0.0000    31.0000 </r>
       <r>     5.1708     0.0000    31.0000 </r>
       <r>     5.2467     0.0000    31.0000 </r>
       <r>     5.3227     0.0000    31.0000 </r>
       <r>     5.3986     0.0000    31.0000 </r>
       <r>     5.4745     0.0000    31.0000 </r>
       <r>     5.5504     0.0000    31.0000 </r>
       <r>     5.6263     0.0000    31.0000 </r>
       <r>     5.7022     0.0000    31.0000 </r>
       <r>     5.7781     0.0000    31.0000 </r>
       <r>     5.8540     0.0000    31.0000 </r>
       <r>     5.9299     0.0000    31.0000 </r>
       <r>     6.0059     0.0000    31.0000 </r>
       <r>     6.0818     0.0000    31.0000 </r>
       <r>     6.1577     0.0000    31.0000 </r>
       <r>     6.2336     0.0000    31.0000 </r>
       <r>     6.3095     0.0000    31.0000 </r>
       <r>     6.3854     0.0000    31.0000 </r>
       <r>     6.4613     0.0000    31.0000 </r>
       <r>     6.5372     0.0000    31.0000 </r>
       <r>     6.6131     0.0000    31.0000 </r>
       <r>     6.6891     0.0000    31.0000 </r>
       <r>     6.7650     0.0000    31.0000 </r>
       <r>     6.8409     0.0000    31.0000 </r>
       <r>     6.9168     0.0000    31.0000 </r>
       <r>     6.9927     0.0000    31.0000 </r>
       <r>     7.0686     0.0000    31.0000 </r>
       <r>     7.1445     0.0000    31.0000 </r>
       <r>     7.2204     0.0000    31.0000 </r>
       <r>     7.2963     0.0000    31.0000 </r>
       <r>     7.3723     0.0000    31.0000 </r>
       <r>     7.4482     0.0000    31.0000 </r>
       <r>     7.5241     0.0000    31.0000 </r>
       <r>     7.6000     0.0000    31.0000 </r>
       <r>     7.6759     0.0000    31.0000 </r>
       <r>     7.7518     0.0000    31.0000 </r>
       <r>     7.8277     0.0000    31.0000 </r>
       <r>     7.9036     0.0000    31.0000 </r>
       <r>     7.9795     0.0000    31.0000 </r>
       <r>     8.0555     0.0000    31.0000 </r>
       <r>     8.1314     0.0000    31.0000 </r>
       <r>     8.2073     0.0000    31.0000 </r>
       <r>     8.2832     0.0000    31.0000 </r>
       <r>     8.3591     0.0000    31.0000 </r>
       <r>     8.4350     0.0000    31.0000 </r>
       <r>     8.5109     0.0000    31.0000 </r>
       <r>     8.5868     0.0000    31.0000 </r>
       <r>     8.6627     0.0000    31.0000 </r>
       <r>     8.7387     0.0000    31.0000 </r>
       <r>     8.8146     0.0000    31.0000 </r>
       <r>     8.8905     0.0000    31.0000 </r>
       <r>     8.9664     0.0000    31.0000 </r>
       <r>     9.0423     0.0000    31.0000 </r>
       <r>     9.1182     0.0000    31.0000 </r>
       <r>     9.1941     0.0000    31.0000 </r>
       <r>     9.2700     0.0000    31.0000 </r>
       <r>     9.3459     0.0000    31.0000 </r>
       <r>     9.4219     0.0000    31.0000 </r>
       <r>     9.4978     0.0000    31.0000 </r>
       <r>     9.5737     0.0000    31.0000 </r>
       <r>     9.6496     0.0000    31.0000 </r>
       <r>     9.7255     0.0000    31.0000 </r>
       <r>     9.8014     0.0000    31.0000 </r>
       <r>     9.8773     0.0000    31.0000 </r>
       <r>     9.9532     0.0000    31.0000 </r>
       <r>    10.0292     0.0000    31.0000 </r>
       <r>    10.1051     0.0000    31.0000 </r>
       <r>    10.1810     0.0000    31.0000 </r>
       <r>    10.2569     0.0000    31.0000 </r>
       <r>    10.3328     0.0000    31.0000 </r>
       <r>    10.4087     0.0000    31.0000 </r>
       <r>    10.4846     0.0000    31.0000 </r>
       <r>    10.5605     0.0000    31.0000 </r>
       <r>    10.6364     0.0000    31.0000 </r>
       <r>    10.7124     0.0000    31.0000 </r>
       <r>    10.7883     0.0000    31.0000 </r>
       <r>    10.8642     0.0000    31.0000 </r>
       <r>    10.9401     0.0000    31.0000 </r>
       <r>    11.0160     0.0000    31.0000 </r>
       <r>    11.0919     0.0000    31.0000 </r>
       <r>    11.1678     0.0000    31.0000 </r>
       <r>    11.2437     0.0000    31.0000 </r>
       <r>    11.3196     0.0000    31.0000 </r>
       <r>    11.3956     0.0000    31.0000 </r>
       <r>    11.4715     0.0000    31.0000 </r>
       <r>    11.5474     0.0000    31.0000 </r>
       <r>    11.6233     0.0000    31.0000 </r>
       <r>    11.6992     0.0000    31.0000 </r>
       <r>    11.7751     0.0000    31.0000 </r>
       <r>    11.8510     0.0000    31.0000 </r>
       <r>    11.9269     0.0000    31.0000 </r>
       <r>    12.0028     0.0000    31.0000 </r>
       <r>    12.0788     0.0000    31.0000 </r>
       <r>    12.1547     0.0000    31.0000 </r>
       <r>    12.2306     0.0000    31.0000 </r>
       <r>    12.3065     0.0000    31.0000 </r>
       <r>    12.3824     0.0000    31.0000 </r>
       <r>    12.4583     0.0000    31.0000 </r>
       <r>    12.5342     0.0000    31.0000 </r>
       <r>    12.6101     0.0000    31.0000 </r>
       <r>    12.6860     0.0000    31.0000 </r>
       <r>    12.7620     0.0000    31.0000 </r>
       <r>    12.8379     0.0000    31.0000 </r>
       <r>    12.9138     0.0000    31.0000 </r>
       <r>    12.9897     0.0000    31.0000 </r>
       <r>    13.0656     0.0000    31.0000 </r>
       <r>    13.1415     0.0000    31.0000 </r>
       <r>    13.2174     0.0000    31.0000 </r>
       <r>    13.2933     0.0000    31.0000 </r>
       <r>    13.3692     0.0000    31.0000 </r>
       <r>    13.4452     0.0000    31.0000 </r>
       <r>    13.5211     0.0000    31.0000 </r>
       <r>    13.5970     0.0000    31.0000 </r>
       <r>    13.6729     0.0000    31.0000 </r>
      </set>
     </set>
    </array>
   </total>
  </dos>
 </calculation>
 <structure name="finalpos" >
  <crystal>
   <varray name="basis" >
    <v>       3.98651217       0.00000000       0.00000000 </v>
    <v>       0.00000000       2.81888979       0.00000000 </v>
    <v>       0.00000000       0.00000000      19.04722447 </v>
   </varray>
   <i name="volume">    214.04391742 </i>
   <varray name="rec_basis" >
    <v>       0.25084584       0.00000000       0.00000000 </v>
    <v>       0.00000000       0.35474959       0.00000000 </v>
    <v>       0.00000000       0.00000000       0.05250109 </v>
   </varray>
  </crystal>
  <varray name="positions" >
   <v>       0.00000000       0.00000000       0.00000000 </v>
   <v>       0.35355339       0.50000000       0.07399739 </v>
   <v>      -0.14102240       0.00000000       0.13601500 </v>
   <v>       0.37381968       0.50000000       0.19780759 </v>
   <v>      -0.14133289       0.00000000       0.26917516 </v>
   <v>       0.33926611       0.50000000       0.32245946 </v>
  </varray>
  <varray name="selective"  type="logical" >
   <v type="logical" >  F  F  F </v>
   <v type="logical" >  F  F  F </v>
   <v type="logical" >  T  T  T </v>
   <v type="logical" >  T  T  T </v>
   <v type="logical" >  T  T  T </v>
   <v type="logical" >  T  T  T </v>
  </varray>
  <nose>
   <v>      -3.00000000       0.00000000       0.00010000       0.00010000 </v>
  </nose>
 </structure>
</modeling>
