Crystal                                 
           1
     3.986512    0.000000    0.000000
     0.000000    2.818890    0.000000
     0.000000    0.000000   19.047224
   Fe
   6
Direct configuration=     1
   0.00000000  0.00000000  0.00000000
   0.35355339  0.50000000  0.07399739
   0.00000000  0.00000000  0.14799478
   0.35355339  0.50000000  0.22199217
   0.00000000  0.00000000  0.29598956
   0.35355339  0.50000000  0.36998695
Direct configuration=     2
   0.00000000  0.00000000  0.00000000
   0.35355339  0.50000000  0.07399739
   0.00284344  0.00000000  0.14823402
   0.35191907  0.50000000  0.22128776
  -0.00237583  0.00000000  0.29702963
   0.35104368  0.50000000  0.36577757
Direct configuration=     3
   0.00000000  0.00000000  0.00000000
   0.35355339  0.50000000  0.07399739
   0.00848581  0.00000000  0.14870874
   0.34867602  0.50000000  0.21988997
  -0.00709029  0.00000000  0.29909348
   0.34606355  0.50000000  0.35742470
Direct configuration=     4
   0.00000000  0.00000000  0.00000000
   0.35355339  0.50000000  0.07399739
   0.00351325  0.00000000  0.14997077
   0.35185982  0.50000000  0.21855282
  -0.01978054  0.00000000  0.29841696
   0.35127536  0.50000000  0.35381866
Direct configuration=     5
   0.00000000  0.00000000  0.00000000
   0.35355339  0.50000000  0.07399739
  -0.01140443  0.00000000  0.15375687
   0.36141121  0.50000000  0.21454139
  -0.05785130  0.00000000  0.29638740
   0.36691076  0.50000000  0.34300054
Direct configuration=     6
   0.00000000  0.00000000  0.00000000
   0.35355339  0.50000000  0.07399739
  -0.04123981  0.00000000  0.16132905
   0.38051399  0.50000000  0.20651854
  -0.13399281  0.00000000  0.29232828
   0.39818158  0.50000000  0.32136429
Direct configuration=     7
   0.00000000  0.00000000  0.00000000
   0.35355339  0.50000000  0.07399739
  -0.02520310  0.00000000  0.15725895
   0.37024612  0.50000000  0.21083087
  -0.09306626  0.00000000  0.29451008
   0.38137331  0.50000000  0.33299391
Direct configuration=     8
   0.00000000  0.00000000  0.00000000
   0.35355339  0.50000000  0.07399739
  -0.03327555  0.00000000  0.15930773
   0.37541470  0.50000000  0.20866016
  -0.11366760  0.00000000  0.29341182
   0.38983415  0.50000000  0.32713987
Direct configuration=     9
   0.00000000  0.00000000  0.00000000
   0.35355339  0.50000000  0.07399739
  -0.05795339  0.00000000  0.15653669
   0.39401928  0.50000000  0.20657264
  -0.12709887  0.00000000  0.28986780
   0.39539254  0.50000000  0.32614547
Direct configuration=    10
   0.00000000  0.00000000  0.00000000
   0.35355339  0.50000000  0.07399739
  -0.09092459  0.00000000  0.15283440
   0.41887622  0.50000000  0.20378357
  -0.14504394  0.00000000  0.28513275
   0.40281892  0.50000000  0.32481688
Direct configuration=    11
   0.00000000  0.00000000  0.00000000
   0.35355339  0.50000000  0.07399739
  -0.10031802  0.00000000  0.14776397
   0.42072655  0.50000000  0.20113156
  -0.13164832  0.00000000  0.28124072
   0.38929832  0.50000000  0.32774509
Direct configuration=    12
   0.00000000  0.00000000  0.00000000
   0.35355339  0.50000000  0.07399739
  -0.10455510  0.00000000  0.14547686
   0.42156118  0.50000000  0.19993532
  -0.12560597  0.00000000  0.27948515
   0.38319959  0.50000000  0.32906592
Direct configuration=    13
   0.00000000  0.00000000  0.00000000
   0.35355339  0.50000000  0.07399739
  -0.11302927  0.00000000  0.14090263
   0.42323043  0.50000000  0.19754284
  -0.11352127  0.00000000  0.27597400
   0.37100215  0.50000000  0.33170756
Direct configuration=    14
   0.00000000  0.00000000  0.00000000
   0.35355339  0.50000000  0.07399739
  -0.10884564  0.00000000  0.14316090
   0.42240633  0.50000000  0.19872399
  -0.11948740  0.00000000  0.27770743
   0.37702394  0.50000000  0.33040340
Direct configuration=    15
   0.00000000  0.00000000  0.00000000
   0.35355339  0.50000000  0.07399739
  -0.11399211  0.00000000  0.13920600
   0.41536798  0.50000000  0.20130956
  -0.10960862  0.00000000  0.27459322
   0.36995747  0.50000000  0.32856150
Direct configuration=    16
   0.00000000  0.00000000  0.00000000
   0.35355339  0.50000000  0.07399739
  -0.11482418  0.00000000  0.13856658
   0.41423004  0.50000000  0.20172759
  -0.10801145  0.00000000  0.27408972
   0.36881498  0.50000000  0.32826370
Direct configuration=    17
   0.00000000  0.00000000  0.00000000
   0.35355339  0.50000000  0.07399739
  -0.11898562  0.00000000  0.13849998
   0.40759920  0.50000000  0.20074966
  -0.10624691  0.00000000  0.27247412
   0.36790685  0.50000000  0.32669704
Direct configuration=    18
   0.00000000  0.00000000  0.00000000
   0.35355339  0.50000000  0.07399739
  -0.12502866  0.00000000  0.13840328
   0.39797021  0.50000000  0.19932955
  -0.10368452  0.00000000  0.27012802
   0.36658810  0.50000000  0.32442202
Direct configuration=    19
   0.00000000  0.00000000  0.00000000
   0.35355339  0.50000000  0.07399739
  -0.12988344  0.00000000  0.13660859
   0.39294271  0.50000000  0.19790297
  -0.10898318  0.00000000  0.26963703
   0.36815160  0.50000000  0.32287843
Direct configuration=    20
   0.00000000  0.00000000  0.00000000
   0.35355339  0.50000000  0.07399739
  -0.13176400  0.00000000  0.13591339
   0.39099523  0.50000000  0.19735036
  -0.11103569  0.00000000  0.26944683
   0.36875724  0.50000000  0.32228050
Direct configuration=    21
   0.00000000  0.00000000  0.00000000
   0.35355339  0.50000000  0.07399739
  -0.13469932  0.00000000  0.13548180
   0.38905832  0.50000000  0.19780859
  -0.11698226  0.00000000  0.26859354
   0.36981030  0.50000000  0.32180564
Direct configuration=    22
   0.00000000  0.00000000  0.00000000
   0.35355339  0.50000000  0.07399739
  -0.13404791  0.00000000  0.13557758
   0.38948817  0.50000000  0.19770690
  -0.11566258  0.00000000  0.26878291
   0.36957661  0.50000000  0.32191102
Direct configuration=    23
   0.00000000  0.00000000  0.00000000
   0.35355339  0.50000000  0.07399739
  -0.13544431  0.00000000  0.13565201
   0.38763241  0.50000000  0.19743135
  -0.11865143  0.00000000  0.26855444
   0.36855557  0.50000000  0.32206544
Direct configuration=    24
   0.00000000  0.00000000  0.00000000
   0.35355339  0.50000000  0.07399739
  -0.13585461  0.00000000  0.13567388
   0.38708713  0.50000000  0.19735039
  -0.11952963  0.00000000  0.26848731
   0.36825556  0.50000000  0.32211081
Direct configuration=    25
   0.00000000  0.00000000  0.00000000
   0.35355339  0.50000000  0.07399739
  -0.13647049  0.00000000  0.13564940
   0.38551225  0.50000000  0.19733292
  -0.12106082  0.00000000  0.26852152
   0.36711648  0.50000000  0.32210799
Direct configuration=    26
   0.00000000  0.00000000  0.00000000
   0.35355339  0.50000000  0.07399739
  -0.13831813  0.00000000  0.13557595
   0.38078760  0.50000000  0.19728052
  -0.12565438  0.00000000  0.26862413
   0.36369927  0.50000000  0.32209951
Direct configuration=    27
   0.00000000  0.00000000  0.00000000
   0.35355339  0.50000000  0.07399739
  -0.14201341  0.00000000  0.13542905
   0.37133831  0.50000000  0.19717571
  -0.13484151  0.00000000  0.26882936
   0.35686483  0.50000000  0.32208256
Direct configuration=    28
   0.00000000  0.00000000  0.00000000
   0.35355339  0.50000000  0.07399739
  -0.14319674  0.00000000  0.13564105
   0.37040478  0.50000000  0.19767928
  -0.13579502  0.00000000  0.26889153
   0.35482233  0.50000000  0.32195246
Direct configuration=    29
   0.00000000  0.00000000  0.00000000
   0.35355339  0.50000000  0.07399739
  -0.14284912  0.00000000  0.13557877
   0.37067902  0.50000000  0.19753135
  -0.13551491  0.00000000  0.26887326
   0.35542234  0.50000000  0.32199068
Direct configuration=    30
   0.00000000  0.00000000  0.00000000
   0.35355339  0.50000000  0.07399739
  -0.14347725  0.00000000  0.13580087
   0.37078519  0.50000000  0.19754729
  -0.13559455  0.00000000  0.26898049
   0.35372540  0.50000000  0.32210823
Direct configuration=    31
   0.00000000  0.00000000  0.00000000
   0.35355339  0.50000000  0.07399739
  -0.14403351  0.00000000  0.13599756
   0.37087921  0.50000000  0.19756141
  -0.13566508  0.00000000  0.26907545
   0.35222262  0.50000000  0.32221233
Direct configuration=    32
   0.00000000  0.00000000  0.00000000
   0.35355339  0.50000000  0.07399739
  -0.14384623  0.00000000  0.13600048
   0.37102768  0.50000000  0.19763528
  -0.13586461  0.00000000  0.26921250
   0.35052998  0.50000000  0.32236381
Direct configuration=    33
   0.00000000  0.00000000  0.00000000
   0.35355339  0.50000000  0.07399739
  -0.14352255  0.00000000  0.13600552
   0.37128427  0.50000000  0.19776294
  -0.13620947  0.00000000  0.26944938
   0.34760446  0.50000000  0.32262563
Direct configuration=    34
   0.00000000  0.00000000  0.00000000
   0.35355339  0.50000000  0.07399739
  -0.14336969  0.00000000  0.13600790
   0.37140545  0.50000000  0.19782322
  -0.13637232  0.00000000  0.26956125
   0.34622290  0.50000000  0.32274927
Direct configuration=    35
   0.00000000  0.00000000  0.00000000
   0.35355339  0.50000000  0.07399739
  -0.14292977  0.00000000  0.13604636
   0.37175926  0.50000000  0.19794031
  -0.13703648  0.00000000  0.26955650
   0.34467240  0.50000000  0.32285946
Direct configuration=    36
   0.00000000  0.00000000  0.00000000
   0.35355339  0.50000000  0.07399739
  -0.14161342  0.00000000  0.13616145
   0.37281794  0.50000000  0.19829068
  -0.13902379  0.00000000  0.26954228
   0.34003297  0.50000000  0.32318916
Direct configuration=    37
   0.00000000  0.00000000  0.00000000
   0.35355339  0.50000000  0.07399739
  -0.14206270  0.00000000  0.13612217
   0.37245661  0.50000000  0.19817109
  -0.13834551  0.00000000  0.26954713
   0.34161643  0.50000000  0.32307663
Direct configuration=    38
   0.00000000  0.00000000  0.00000000
   0.35355339  0.50000000  0.07399739
  -0.14259524  0.00000000  0.13607561
   0.37202831  0.50000000  0.19802935
  -0.13754152  0.00000000  0.26955288
   0.34349337  0.50000000  0.32294325
Direct configuration=    39
   0.00000000  0.00000000  0.00000000
   0.35355339  0.50000000  0.07399739
  -0.14236417  0.00000000  0.13609581
   0.37221415  0.50000000  0.19809085
  -0.13789038  0.00000000  0.26955039
   0.34267896  0.50000000  0.32300112
Direct configuration=    40
   0.00000000  0.00000000  0.00000000
   0.35355339  0.50000000  0.07399739
  -0.14221343  0.00000000  0.13610899
   0.37233538  0.50000000  0.19813097
  -0.13811794  0.00000000  0.26954876
   0.34214770  0.50000000  0.32303888
Direct configuration=    41
   0.00000000  0.00000000  0.00000000
   0.35355339  0.50000000  0.07399739
  -0.14203653  0.00000000  0.13616677
   0.37267101  0.50000000  0.19804866
  -0.13877684  0.00000000  0.26945668
   0.34179437  0.50000000  0.32299111
Direct configuration=    42
   0.00000000  0.00000000  0.00000000
   0.35355339  0.50000000  0.07399739
  -0.14174317  0.00000000  0.13626259
   0.37322759  0.50000000  0.19791216
  -0.13986947  0.00000000  0.26930398
   0.34120845  0.50000000  0.32291190
Direct configuration=    43
   0.00000000  0.00000000  0.00000000
   0.35355339  0.50000000  0.07399739
  -0.14149469  0.00000000  0.13621173
   0.37346040  0.50000000  0.19788039
  -0.14041880  0.00000000  0.26925948
   0.34073693  0.50000000  0.32278418
Direct configuration=    44
   0.00000000  0.00000000  0.00000000
   0.35355339  0.50000000  0.07399739
  -0.14093122  0.00000000  0.13609641
   0.37398833  0.50000000  0.19780834
  -0.14166451  0.00000000  0.26915858
   0.33966769  0.50000000  0.32249456
Direct configuration=    45
   0.00000000  0.00000000  0.00000000
   0.35355339  0.50000000  0.07399739
  -0.14102240  0.00000000  0.13601500
   0.37381968  0.50000000  0.19780759
  -0.14133289  0.00000000  0.26917516
   0.33926611  0.50000000  0.32245946
