<?xml version="1.0" encoding="ISO-8859-1"?>
<modeling>
 <generator>
  <i name="program" type="string">vasp </i>
  <i name="version" type="string">5.3.3  </i>
  <i name="subversion" type="string">18Dez12 (build Sep  7 2015 22:32:56) complex                          parallel </i>
  <i name="platform" type="string">LinuxIFC </i>
  <i name="date" type="string">2022 12 02 </i>
  <i name="time" type="string">14:45:06 </i>
 </generator>
 <incar>
  <i type="string" name="SYSTEM"> Crystal</i>
  <i type="int" name="ISTART">     0</i>
  <i type="string" name="PREC">normal</i>
  <i type="string" name="ALGO"> fast</i>
  <i type="int" name="NSIM">     4</i>
  <i type="int" name="ISPIN">     2</i>
  <i type="int" name="ICHARG">     2</i>
  <i type="int" name="NELMDL">   -10</i>
  <i type="int" name="NELMIN">     4</i>
  <i type="int" name="IBRION">     2</i>
  <i name="EDIFF">      0.00001000</i>
  <i name="EDIFFG">     -0.01000000</i>
  <i type="int" name="NSW">   300</i>
  <i name="ENCUT">    350.00000000</i>
  <i type="logical" name="LREAL"> F  </i>
  <i type="int" name="ISMEAR">     2</i>
  <i name="SIGMA">      0.10000000</i>
  <i type="logical" name="LWAVE"> F  </i>
  <i type="logical" name="LCHARG"> F  </i>
 </incar>
 <kpoints>
  <generation param="Gamma">
   <v type="int" name="divisions">       9        9        1 </v>
   <v name="usershift">      0.00000000       0.00000000       0.00000000 </v>
   <v name="genvec1">      0.11111111       0.00000000       0.00000000 </v>
   <v name="genvec2">      0.00000000       0.11111111       0.00000000 </v>
   <v name="genvec3">      0.00000000       0.00000000       1.00000000 </v>
   <v name="shift">      0.00000000       0.00000000       0.00000000 </v>
  </generation>
  <varray name="kpointlist" >
   <v>       0.00000000       0.00000000       0.00000000 </v>
   <v>       0.11111111       0.00000000       0.00000000 </v>
   <v>       0.22222222       0.00000000       0.00000000 </v>
   <v>       0.33333333       0.00000000       0.00000000 </v>
   <v>       0.44444444       0.00000000       0.00000000 </v>
   <v>       0.11111111       0.11111111       0.00000000 </v>
   <v>       0.22222222       0.11111111       0.00000000 </v>
   <v>       0.33333333       0.11111111       0.00000000 </v>
   <v>       0.44444444       0.11111111       0.00000000 </v>
   <v>      -0.44444444       0.11111111       0.00000000 </v>
   <v>      -0.33333333       0.11111111       0.00000000 </v>
   <v>      -0.22222222       0.11111111       0.00000000 </v>
   <v>      -0.11111111       0.11111111       0.00000000 </v>
   <v>       0.22222222       0.22222222       0.00000000 </v>
   <v>       0.33333333       0.22222222       0.00000000 </v>
   <v>       0.44444444       0.22222222       0.00000000 </v>
   <v>      -0.44444444       0.22222222       0.00000000 </v>
   <v>      -0.33333333       0.22222222       0.00000000 </v>
   <v>      -0.22222222       0.22222222       0.00000000 </v>
   <v>       0.33333333       0.33333333       0.00000000 </v>
   <v>       0.44444444       0.33333333       0.00000000 </v>
   <v>      -0.44444444       0.33333333       0.00000000 </v>
   <v>      -0.33333333       0.33333333       0.00000000 </v>
   <v>       0.44444444       0.44444444       0.00000000 </v>
   <v>      -0.44444444       0.44444444       0.00000000 </v>
  </varray>
  <varray name="weights" >
   <v>       0.01234568 </v>
   <v>       0.04938272 </v>
   <v>       0.04938272 </v>
   <v>       0.04938272 </v>
   <v>       0.04938272 </v>
   <v>       0.02469136 </v>
   <v>       0.04938272 </v>
   <v>       0.04938272 </v>
   <v>       0.04938272 </v>
   <v>       0.04938272 </v>
   <v>       0.04938272 </v>
   <v>       0.04938272 </v>
   <v>       0.02469136 </v>
   <v>       0.02469136 </v>
   <v>       0.04938272 </v>
   <v>       0.04938272 </v>
   <v>       0.04938272 </v>
   <v>       0.04938272 </v>
   <v>       0.02469136 </v>
   <v>       0.02469136 </v>
   <v>       0.04938272 </v>
   <v>       0.04938272 </v>
   <v>       0.02469136 </v>
   <v>       0.02469136 </v>
   <v>       0.02469136 </v>
  </varray>
 </kpoints>
 <parameters>
  <separator name="general" >
   <i type="string" name="SYSTEM">Crystal</i>
   <i type="logical" name="LCOMPAT"> F  </i>
  </separator>
  <separator name="electronic" >
   <i type="string" name="PREC">normal</i>
   <i name="ENMAX">    350.00000000</i>
   <i name="ENAUG">    511.36800000</i>
   <i name="EDIFF">      0.00001000</i>
   <i type="int" name="IALGO">    68</i>
   <i type="int" name="IWAVPR">    11</i>
   <i type="int" name="NBANDS">    31</i>
   <i name="NELECT">     48.00000000</i>
   <i type="int" name="TURBO">     0</i>
   <i type="int" name="IRESTART">     0</i>
   <i type="int" name="NREBOOT">     0</i>
   <i type="int" name="NMIN">     0</i>
   <i name="EREF">      0.00000000</i>
   <separator name="electronic smearing" >
    <i type="int" name="ISMEAR">     2</i>
    <i name="SIGMA">      0.10000000</i>
    <i name="KSPACING">      0.50000000</i>
    <i type="logical" name="KGAMMA"> T  </i>
   </separator>
   <separator name="electronic projectors" >
    <i type="logical" name="LREAL"> F  </i>
    <v name="ROPT">      0.00000000</v>
    <i type="int" name="LMAXPAW">  -100</i>
    <i type="int" name="LMAXMIX">     2</i>
    <i type="logical" name="NLSPLINE"> F  </i>
   </separator>
   <separator name="electronic startup" >
    <i type="int" name="ISTART">     0</i>
    <i type="int" name="ICHARG">     2</i>
    <i type="int" name="INIWAV">     1</i>
   </separator>
   <separator name="electronic spin" >
    <i type="int" name="ISPIN">     2</i>
    <i type="logical" name="LNONCOLLINEAR"> F  </i>
    <v name="MAGMOM">      1.00000000      1.00000000      1.00000000      1.00000000      1.00000000      1.00000000</v>
    <i name="NUPDOWN">     -1.00000000</i>
    <i type="logical" name="LSORBIT"> F  </i>
    <v name="SAXIS">      0.00000000      0.00000000      1.00000000</v>
    <i type="logical" name="LSPIRAL"> F  </i>
    <v name="QSPIRAL">      0.00000000      0.00000000      0.00000000</v>
    <i type="logical" name="LZEROZ"> F  </i>
   </separator>
   <separator name="electronic exchange-correlation" >
    <i type="logical" name="LASPH"> F  </i>
    <i type="logical" name="LMETAGGA"> F  </i>
   </separator>
   <separator name="electronic convergence" >
    <i type="int" name="NELM">    60</i>
    <i type="int" name="NELMDL">   -10</i>
    <i type="int" name="NELMIN">     4</i>
    <i name="ENINI">    350.00000000</i>
    <separator name="electronic convergence detail" >
     <i type="logical" name="LDIAG"> T  </i>
     <i type="logical" name="LSUBROT"> T  </i>
     <i name="WEIMIN">      0.00100000</i>
     <i name="EBREAK">      0.00000008</i>
     <i name="DEPER">      0.30000000</i>
     <i type="int" name="NRMM">     4</i>
     <i name="TIME">      0.40000000</i>
    </separator>
   </separator>
   <separator name="electronic mixer" >
    <i name="AMIX">      0.40000000</i>
    <i name="BMIX">      1.00000000</i>
    <i name="AMIN">      0.10000000</i>
    <i name="AMIX_MAG">      1.60000000</i>
    <i name="BMIX_MAG">      1.00000000</i>
    <separator name="electronic mixer details" >
     <i type="int" name="IMIX">     4</i>
     <i type="int" name="MAXMIX">   -45</i>
     <i name="WC">    100.00000000</i>
     <i type="int" name="INIMIX">     1</i>
     <i type="int" name="MIXPRE">     1</i>
     <i type="int" name="MREMOVE">     5</i>
    </separator>
   </separator>
   <separator name="electronic dipolcorrection" >
    <i type="logical" name="LDIPOL"> F  </i>
    <i type="logical" name="LMONO"> F  </i>
    <i type="int" name="IDIPOL">     0</i>
    <i name="EPSILON">      1.00000000</i>
    <v name="DIPOL">   -100.00000000   -100.00000000   -100.00000000</v>
    <i name="EFIELD">      0.00000000</i>
   </separator>
  </separator>
  <separator name="grids" >
   <i type="int" name="NGX">    14</i>
   <i type="int" name="NGY">    14</i>
   <i type="int" name="NGZ">    96</i>
   <i type="int" name="NGXF">    28</i>
   <i type="int" name="NGYF">    28</i>
   <i type="int" name="NGZF">   192</i>
   <i type="logical" name="ADDGRID"> F  </i>
  </separator>
  <separator name="ionic" >
   <i type="int" name="NSW">   300</i>
   <i type="int" name="IBRION">     2</i>
   <i type="int" name="ISIF">     2</i>
   <i name="PSTRESS">      0.00000000</i>
   <i name="EDIFFG">     -0.01000000</i>
   <i type="int" name="NFREE">     1</i>
   <i name="POTIM">      0.50000000</i>
   <i name="SMASS">     -3.00000000</i>
   <i name="SCALEE">      1.00000000</i>
  </separator>
  <separator name="ionic md" >
   <i name="TEBEG">      0.00010000</i>
   <i name="TEEND">      0.00010000</i>
   <i type="int" name="NBLOCK">     1</i>
   <i type="int" name="KBLOCK">   300</i>
   <i type="int" name="NPACO">   256</i>
   <i name="APACO">     16.00000000</i>
  </separator>
  <separator name="symmetry" >
   <i type="int" name="ISYM">     2</i>
   <i name="SYMPREC">      0.00001000</i>
  </separator>
  <separator name="dos" >
   <i type="logical" name="LORBIT"> F  </i>
   <v name="RWIGS">     -1.00000000</v>
   <i type="int" name="NEDOS">   301</i>
   <i name="EMIN">     10.00000000</i>
   <i name="EMAX">    -10.00000000</i>
   <i name="EFERMI">      0.00000000</i>
  </separator>
  <separator name="writing" >
   <i type="int" name="NWRITE">     2</i>
   <i type="logical" name="LWAVE"> F  </i>
   <i type="logical" name="LCHARG"> F  </i>
   <i type="logical" name="LPARD"> F  </i>
   <i type="logical" name="LVTOT"> F  </i>
   <i type="logical" name="LVHAR"> F  </i>
   <i type="logical" name="LELF"> F  </i>
   <i type="logical" name="LOPTICS"> F  </i>
   <v name="STM">      0.00000000      0.00000000      0.00000000      0.00000000      0.00000000      0.00000000      0.00000000</v>
  </separator>
  <separator name="performance" >
   <i type="int" name="NPAR">     1</i>
   <i type="int" name="NSIM">     4</i>
   <i type="int" name="NBLK">    -1</i>
   <i type="logical" name="LPLANE"> T  </i>
   <i type="logical" name="LSCALAPACK"> F  </i>
   <i type="logical" name="LSCAAWARE"> F  </i>
   <i type="logical" name="LSCALU"> F  </i>
   <i type="logical" name="LASYNC"> F  </i>
   <i type="logical" name="LORBITALREAL"> F  </i>
  </separator>
  <separator name="miscellaneous" >
   <i type="int" name="IDIOT">     3</i>
   <i type="logical" name="LMUSIC"> F  </i>
   <v name="POMASS">     55.84700000</v>
   <v name="DARWINR">      0.00000000</v>
   <v name="DARWINV">      1.00000000</v>
   <i type="logical" name="LCORR"> T  </i>
  </separator>
  <i type="logical" name="GGA_COMPAT"> T  </i>
  <i type="logical" name="LBERRY"> F  </i>
  <i type="int" name="ICORELEVEL">     0</i>
  <i type="logical" name="LDAU"> F  </i>
  <i type="int" name="I_CONSTRAINED_M">     0</i>
  <separator name="electronic exchange-correlation" >
   <i type="string" name="GGA">--</i>
   <i type="int" name="VOSKOWN">     0</i>
   <i type="logical" name="LHFCALC"> F  </i>
   <i type="string" name="PRECFOCK"></i>
   <i type="logical" name="LSYMGRAD"> F  </i>
   <i type="logical" name="LHFONE"> F  </i>
   <i type="logical" name="LRHFCALC"> F  </i>
   <i type="logical" name="LTHOMAS"> F  </i>
   <i type="logical" name="LMODELHF"> F  </i>
   <i name="ENCUT4O">     -1.00000000</i>
   <i type="int" name="EXXOEP">     0</i>
   <i type="int" name="FOURORBIT">     0</i>
   <i name="AEXX">      0.00000000</i>
   <i name="HFALPHA">      0.00000000</i>
   <i name="MCALPHA">      0.00000000</i>
   <i name="ALDAX">      1.00000000</i>
   <i name="AGGAX">      1.00000000</i>
   <i name="ALDAC">      1.00000000</i>
   <i name="AGGAC">      1.00000000</i>
   <i type="int" name="NKREDX">     1</i>
   <i type="int" name="NKREDY">     1</i>
   <i type="int" name="NKREDZ">     1</i>
   <i type="logical" name="SHIFTRED"> F  </i>
   <i type="logical" name="ODDONLY"> F  </i>
   <i type="logical" name="EVENONLY"> F  </i>
   <i type="int" name="LMAXFOCK">     0</i>
   <i type="int" name="NMAXFOCKAE">     0</i>
   <i type="logical" name="LFOCKAEDFT"> F  </i>
   <i name="HFSCREEN">      0.00000000</i>
   <i name="HFSCREENC">      0.00000000</i>
   <i type="int" name="NBANDSGWLOW">     0</i>
  </separator>
  <separator name="vdW DFT" >
   <i type="logical" name="LUSE_VDW"> F  </i>
   <i name="Zab_VDW">     -0.84910000</i>
   <i name="PARAM1">      0.12340000</i>
   <i name="PARAM2">      1.00000000</i>
   <i name="PARAM3">      0.00000000</i>
  </separator>
  <separator name="model GW" >
   <i type="int" name="MODEL_GW">     0</i>
   <i name="MODEL_EPS0">     13.77288000</i>
   <i name="MODEL_ALPHA">      1.00000000</i>
  </separator>
  <separator name="linear response parameters" >
   <i type="logical" name="LEPSILON"> F  </i>
   <i type="logical" name="LRPA"> F  </i>
   <i type="logical" name="LNABLA"> F  </i>
   <i type="logical" name="LVEL"> F  </i>
   <i type="int" name="KINTER">     0</i>
   <i name="CSHIFT">      0.10000000</i>
   <i name="OMEGAMAX">     -1.00000000</i>
   <i name="DEG_THRESHOLD">      0.00200000</i>
  </separator>
  <separator name="orbital magnetization" >
   <i type="logical" name="NUCIND"> F  </i>
   <v name="MAGPOS">      0.00000000      0.00000000      0.00000000</v>
   <i type="logical" name="LNICSALL"> T  </i>
   <i type="logical" name="ORBITALMAG"> F  </i>
   <i type="logical" name="LMAGBLOCH"> F  </i>
   <i type="logical" name="LCHIMAG"> F  </i>
   <i type="logical" name="LGAUGE"> T  </i>
   <i type="int" name="MAGATOM">     0</i>
   <v name="MAGDIPOL">      0.00000000      0.00000000      0.00000000</v>
   <v name="AVECCONST">      0.00000000      0.00000000      0.00000000</v>
  </separator>
  <separator name="response functions" >
   <i type="logical" name="LADDER"> F  </i>
   <i type="logical" name="LFXC"> F  </i>
   <i type="logical" name="LHARTREE"> T  </i>
   <i type="int" name="IBSE">     0</i>
   <i type="logical" name="LTCTE"> F  </i>
   <i type="logical" name="LTETE"> F  </i>
   <i type="logical" name="LTRIPLET"> F  </i>
   <i type="logical" name="LFXCEPS"> F  </i>
   <i type="logical" name="L2ORDER"> F  </i>
   <i type="logical" name="LUSEW"> F  </i>
   <i name="ENCUTGW">     -2.00000000</i>
   <i name="ENCUTGWSOFT">     -2.00000000</i>
   <i name="ENCUTLF">     -1.00000000</i>
   <i type="int" name="LMAXMP2">    -1</i>
   <i name="SCISSOR">      0.00000000</i>
   <i type="int" name="NOMEGA">     0</i>
   <i type="int" name="NOMEGAR">     0</i>
   <i type="int" name="NBANDSGW">    -1</i>
   <i type="int" name="NBANDSO">    -1</i>
   <i type="int" name="NBANDSV">    -1</i>
   <i type="int" name="NELM">     1</i>
   <i type="int" name="DIM">     3</i>
   <i type="int" name="ANTIRES">     0</i>
   <i name="OMEGAMAX">    -30.00000000</i>
   <i name="OMEGATL">   -200.00000000</i>
   <i type="int" name="OMEGAGRID">     0</i>
   <i name="CSHIFT">     -0.10000000</i>
   <i type="logical" name="SELFENERGY"> F  </i>
   <i type="logical" name="LSPECTRAL"> F  </i>
   <i type="logical" name="ODDONLYGW"> F  </i>
   <i type="logical" name="EVENONLYGW"> F  </i>
   <i type="int" name="NKREDLFX">     1</i>
   <i type="int" name="NKREDLFY">     1</i>
   <i type="int" name="NKREDLFZ">     1</i>
   <i type="int" name="MAXMEM">  1800</i>
   <i type="int" name="TELESCOPE">     0</i>
  </separator>
 </parameters>
 <atominfo>
  <atoms>       6 </atoms>
  <types>       1 </types>
  <array name="atoms" >
   <dimension dim="1">ion</dimension>
   <field type="string">element</field>
   <field type="int">atomtype</field>
   <set>
    <rc><c>Fe</c><c>   1</c></rc>
    <rc><c>Fe</c><c>   1</c></rc>
    <rc><c>Fe</c><c>   1</c></rc>
    <rc><c>Fe</c><c>   1</c></rc>
    <rc><c>Fe</c><c>   1</c></rc>
    <rc><c>Fe</c><c>   1</c></rc>
   </set>
  </array>
  <array name="atomtypes" >
   <dimension dim="1">type</dimension>
   <field type="int">atomspertype</field>
   <field type="string">element</field>
   <field>mass</field>
   <field>valence</field>
   <field type="string">pseudopotential</field>
   <set>
    <rc><c>   6</c><c>Fe</c><c>     55.84700000</c><c>      8.00000000</c><c>  PAW_PBE Fe 06Sep2000                  </c></rc>
   </set>
  </array>
 </atominfo>
 <structure name="initialpos" >
  <crystal>
   <varray name="basis" >
    <v>       1.41000000       2.44200000       0.00000000 </v>
    <v>      -1.41000000       2.44200000       0.00000000 </v>
    <v>       0.00000000       0.00000000      20.00000000 </v>
   </varray>
   <i name="volume">    137.72880000 </i>
   <varray name="rec_basis" >
    <v>       0.35460993       0.20475020       0.00000000 </v>
    <v>      -0.35460993       0.20475020       0.00000000 </v>
    <v>       0.00000000       0.00000000       0.05000000 </v>
   </varray>
  </crystal>
  <varray name="positions" >
   <v>       0.00000000       0.00000000       0.00000000 </v>
   <v>       0.40828033       0.40828033       0.09970206 </v>
   <v>       0.81656066       0.81656066       0.19940411 </v>
   <v>       0.22484098       0.22484098       0.29910617 </v>
   <v>       0.63312131       0.63312131       0.39880822 </v>
   <v>       0.04140164       0.04140164       0.49851028 </v>
  </varray>
  <varray name="selective"  type="logical" >
   <v type="logical" >  F  F  F </v>
   <v type="logical" >  F  F  F </v>
   <v type="logical" >  T  T  T </v>
   <v type="logical" >  T  T  T </v>
   <v type="logical" >  T  T  T </v>
   <v type="logical" >  T  T  T </v>
  </varray>
  <nose>
   <v>      -3.00000000       0.00000000       0.00010000       0.00010000 </v>
  </nose>
 </structure>
 <calculation>
  <scstep>
   <time name="dav">   20.60   20.79</time>
   <time name="total">   20.92   21.19</time>
   <energy>
    <i name="alphaZ">    180.65182707 </i>
    <i name="ewald">   5164.45476024 </i>
    <i name="hartreedc">  -8923.55697815 </i>
    <i name="XCdc">     20.07706144 </i>
    <i name="pawpsdc">   3328.36036734 </i>
    <i name="pawaedc">  -3374.58551447 </i>
    <i name="eentropy">      0.00009850 </i>
    <i name="bandstr">    350.76437612 </i>
    <i name="atom">   3565.76896863 </i>
    <i name="e_fr_energy">    311.93496671 </i>
    <i name="e_wo_entrp">    311.93486820 </i>
    <i name="e_0_energy">    311.93494208 </i>
   </energy>
  </scstep>
  <scstep>
   <time name="dav">   20.53   20.56</time>
   <time name="total">   20.54   20.57</time>
   <energy>
    <i name="e_fr_energy">    -22.69983645 </i>
    <i name="e_wo_entrp">    -22.69942439 </i>
    <i name="e_0_energy">    -22.69973344 </i>
   </energy>
  </scstep>
  <scstep>
   <time name="dav">   27.99   28.05</time>
   <time name="total">   28.00   28.06</time>
   <energy>
    <i name="e_fr_energy">    -47.86634546 </i>
    <i name="e_wo_entrp">    -47.86790613 </i>
    <i name="e_0_energy">    -47.86673563 </i>
   </energy>
  </scstep>
  <scstep>
   <time name="dav">   28.03   28.06</time>
   <time name="total">   28.04   28.09</time>
   <energy>
    <i name="e_fr_energy">    -50.51256191 </i>
    <i name="e_wo_entrp">    -50.51495675 </i>
    <i name="e_0_energy">    -50.51316062 </i>
   </energy>
  </scstep>
  <scstep>
   <time name="dav">   28.34   28.37</time>
   <time name="total">   28.35   28.38</time>
   <energy>
    <i name="e_fr_energy">    -50.77858567 </i>
    <i name="e_wo_entrp">    -50.77631037 </i>
    <i name="e_0_energy">    -50.77801685 </i>
   </energy>
  </scstep>
  <scstep>
   <time name="dav">   28.18   28.21</time>
   <time name="total">   28.19   28.22</time>
   <energy>
    <i name="e_fr_energy">    -50.80659665 </i>
    <i name="e_wo_entrp">    -50.80394053 </i>
    <i name="e_0_energy">    -50.80593262 </i>
   </energy>
  </scstep>
  <scstep>
   <time name="dav">   28.35   28.39</time>
   <time name="total">   28.36   28.39</time>
   <energy>
    <i name="e_fr_energy">    -50.81278890 </i>
    <i name="e_wo_entrp">    -50.80995695 </i>
    <i name="e_0_energy">    -50.81208091 </i>
   </energy>
  </scstep>
  <scstep>
   <time name="dav">   23.57   23.60</time>
   <time name="total">   23.58   23.61</time>
   <energy>
    <i name="e_fr_energy">    -50.81409350 </i>
    <i name="e_wo_entrp">    -50.81124231 </i>
    <i name="e_0_energy">    -50.81338070 </i>
   </energy>
  </scstep>
  <scstep>
   <time name="dav">   20.44   20.47</time>
   <time name="total">   20.45   20.48</time>
   <energy>
    <i name="e_fr_energy">    -50.81454621 </i>
    <i name="e_wo_entrp">    -50.81170356 </i>
    <i name="e_0_energy">    -50.81383554 </i>
   </energy>
  </scstep>
  <scstep>
   <time name="dav">   18.41   18.43</time>
   <time name="total">   21.26   21.43</time>
   <energy>
    <i name="e_fr_energy">    -50.81472393 </i>
    <i name="e_wo_entrp">    -50.81188103 </i>
    <i name="e_0_energy">    -50.81401320 </i>
   </energy>
  </scstep>
  <scstep>
   <time name="diag">    5.62    5.66</time>
   <time name="diis">   19.93   19.95</time>
   <time name="orth">    0.17    0.17</time>
   <time name="total">   28.87   29.06</time>
   <energy>
    <i name="e_fr_energy">    -75.00011572 </i>
    <i name="e_wo_entrp">    -75.00156859 </i>
    <i name="e_0_energy">    -75.00047894 </i>
   </energy>
  </scstep>
  <scstep>
   <time name="diag">    5.60    5.60</time>
   <time name="diis">   17.36   17.38</time>
   <time name="orth">    0.17    0.17</time>
   <time name="total">   26.28   26.33</time>
   <energy>
    <i name="e_fr_energy">    -60.25264951 </i>
    <i name="e_wo_entrp">    -60.25214925 </i>
    <i name="e_0_energy">    -60.25252444 </i>
   </energy>
  </scstep>
  <scstep>
   <time name="diag">    5.60    5.60</time>
   <time name="diis">   16.97   16.99</time>
   <time name="orth">    0.17    0.17</time>
   <time name="total">   25.90   25.96</time>
   <energy>
    <i name="e_fr_energy">    -48.21820639 </i>
    <i name="e_wo_entrp">    -48.21605706 </i>
    <i name="e_0_energy">    -48.21766905 </i>
   </energy>
  </scstep>
  <scstep>
   <time name="diag">    5.62    5.62</time>
   <time name="diis">   17.75   17.77</time>
   <time name="orth">    0.17    0.17</time>
   <time name="total">   26.68   26.72</time>
   <energy>
    <i name="e_fr_energy">    -49.67700771 </i>
    <i name="e_wo_entrp">    -49.67356351 </i>
    <i name="e_0_energy">    -49.67614666 </i>
   </energy>
  </scstep>
  <scstep>
   <time name="diag">    5.60    5.61</time>
   <time name="diis">   18.36   18.39</time>
   <time name="orth">    0.17    0.17</time>
   <time name="total">   27.29   27.32</time>
   <energy>
    <i name="e_fr_energy">    -54.46486911 </i>
    <i name="e_wo_entrp">    -54.46587125 </i>
    <i name="e_0_energy">    -54.46511965 </i>
   </energy>
  </scstep>
  <scstep>
   <time name="diag">    5.60    5.61</time>
   <time name="diis">   17.45   17.47</time>
   <time name="orth">    0.17    0.17</time>
   <time name="total">   26.37   26.40</time>
   <energy>
    <i name="e_fr_energy">    -45.46182203 </i>
    <i name="e_wo_entrp">    -45.45985619 </i>
    <i name="e_0_energy">    -45.46133057 </i>
   </energy>
  </scstep>
  <scstep>
   <time name="diag">    5.60    5.61</time>
   <time name="diis">   18.58   18.61</time>
   <time name="orth">    0.17    0.17</time>
   <time name="total">   27.50   27.54</time>
   <energy>
    <i name="e_fr_energy">    -43.80147503 </i>
    <i name="e_wo_entrp">    -43.80310710 </i>
    <i name="e_0_energy">    -43.80188305 </i>
   </energy>
  </scstep>
  <scstep>
   <time name="diag">    5.59    5.60</time>
   <time name="diis">   18.43   18.45</time>
   <time name="orth">    0.17    0.17</time>
   <time name="total">   27.34   27.37</time>
   <energy>
    <i name="e_fr_energy">    -43.25871876 </i>
    <i name="e_wo_entrp">    -43.25773955 </i>
    <i name="e_0_energy">    -43.25847396 </i>
   </energy>
  </scstep>
  <scstep>
   <time name="diag">    5.60    5.60</time>
   <time name="diis">   23.37   23.40</time>
   <time name="orth">    0.17    0.17</time>
   <time name="total">   32.28   32.32</time>
   <energy>
    <i name="e_fr_energy">    -43.27609447 </i>
    <i name="e_wo_entrp">    -43.27519444 </i>
    <i name="e_0_energy">    -43.27586947 </i>
   </energy>
  </scstep>
  <scstep>
   <time name="diag">    5.59    5.60</time>
   <time name="diis">   21.61   21.64</time>
   <time name="orth">    0.17    0.17</time>
   <time name="total">   30.52   30.56</time>
   <energy>
    <i name="e_fr_energy">    -43.29348721 </i>
    <i name="e_wo_entrp">    -43.29124295 </i>
    <i name="e_0_energy">    -43.29292615 </i>
   </energy>
  </scstep>
  <scstep>
   <time name="diag">    5.58    5.58</time>
   <time name="diis">   18.21   18.23</time>
   <time name="orth">    0.17    0.17</time>
   <time name="total">   27.10   27.16</time>
   <energy>
    <i name="e_fr_energy">    -43.26608657 </i>
    <i name="e_wo_entrp">    -43.26521607 </i>
    <i name="e_0_energy">    -43.26586894 </i>
   </energy>
  </scstep>
  <scstep>
   <time name="diag">    5.59    5.60</time>
   <time name="diis">   17.64   17.67</time>
   <time name="orth">    0.17    0.17</time>
   <time name="total">   26.53   26.57</time>
   <energy>
    <i name="e_fr_energy">    -42.52091951 </i>
    <i name="e_wo_entrp">    -42.52130385 </i>
    <i name="e_0_energy">    -42.52101559 </i>
   </energy>
  </scstep>
  <scstep>
   <time name="diag">    5.58    5.58</time>
   <time name="diis">   22.03   22.06</time>
   <time name="orth">    0.17    0.17</time>
   <time name="total">   30.91   30.94</time>
   <energy>
    <i name="e_fr_energy">    -42.88579310 </i>
    <i name="e_wo_entrp">    -42.88344247 </i>
    <i name="e_0_energy">    -42.88520544 </i>
   </energy>
  </scstep>
  <scstep>
   <time name="diag">    5.58    5.59</time>
   <time name="diis">   17.86   17.88</time>
   <time name="orth">    0.17    0.17</time>
   <time name="total">   26.74   26.78</time>
   <energy>
    <i name="e_fr_energy">    -42.94513199 </i>
    <i name="e_wo_entrp">    -42.94275821 </i>
    <i name="e_0_energy">    -42.94453855 </i>
   </energy>
  </scstep>
  <scstep>
   <time name="diag">    5.58    5.58</time>
   <time name="diis">   18.74   18.76</time>
   <time name="orth">    0.17    0.17</time>
   <time name="total">   27.62   27.65</time>
   <energy>
    <i name="e_fr_energy">    -43.16530077 </i>
    <i name="e_wo_entrp">    -43.16534786 </i>
    <i name="e_0_energy">    -43.16531254 </i>
   </energy>
  </scstep>
  <scstep>
   <time name="diag">    5.58    5.59</time>
   <time name="diis">   20.72   20.74</time>
   <time name="orth">    0.17    0.17</time>
   <time name="total">   29.60   29.63</time>
   <energy>
    <i name="e_fr_energy">    -42.99776995 </i>
    <i name="e_wo_entrp">    -42.99562973 </i>
    <i name="e_0_energy">    -42.99723489 </i>
   </energy>
  </scstep>
  <scstep>
   <time name="diag">    5.58    5.58</time>
   <time name="diis">   22.18   22.21</time>
   <time name="orth">    0.17    0.17</time>
   <time name="total">   31.07   31.20</time>
   <energy>
    <i name="e_fr_energy">    -42.94423570 </i>
    <i name="e_wo_entrp">    -42.94169091 </i>
    <i name="e_0_energy">    -42.94359950 </i>
   </energy>
  </scstep>
  <scstep>
   <time name="diag">    5.60    5.60</time>
   <time name="diis">   19.13   19.15</time>
   <time name="orth">    0.17    0.17</time>
   <time name="total">   28.02   28.08</time>
   <energy>
    <i name="e_fr_energy">    -42.92622108 </i>
    <i name="e_wo_entrp">    -42.92415964 </i>
    <i name="e_0_energy">    -42.92570572 </i>
   </energy>
  </scstep>
  <scstep>
   <time name="diag">    5.58    5.59</time>
   <time name="diis">   17.41   17.43</time>
   <time name="orth">    0.17    0.17</time>
   <time name="total">   26.29   26.32</time>
   <energy>
    <i name="e_fr_energy">    -42.98310266 </i>
    <i name="e_wo_entrp">    -42.98097265 </i>
    <i name="e_0_energy">    -42.98257016 </i>
   </energy>
  </scstep>
  <scstep>
   <time name="diag">    5.57    5.58</time>
   <time name="diis">   21.02   21.05</time>
   <time name="orth">    0.17    0.17</time>
   <time name="total">   29.90   29.93</time>
   <energy>
    <i name="e_fr_energy">    -42.96001136 </i>
    <i name="e_wo_entrp">    -42.95800387 </i>
    <i name="e_0_energy">    -42.95950949 </i>
   </energy>
  </scstep>
  <scstep>
   <time name="diag">    5.58    5.58</time>
   <time name="diis">   23.27   23.30</time>
   <time name="orth">    0.17    0.17</time>
   <time name="total">   32.16   32.22</time>
   <energy>
    <i name="e_fr_energy">    -42.98279888 </i>
    <i name="e_wo_entrp">    -42.98092197 </i>
    <i name="e_0_energy">    -42.98232965 </i>
   </energy>
  </scstep>
  <scstep>
   <time name="diag">    5.60    5.60</time>
   <time name="diis">   21.84   21.87</time>
   <time name="orth">    0.17    0.17</time>
   <time name="total">   30.75   30.79</time>
   <energy>
    <i name="e_fr_energy">    -42.98276110 </i>
    <i name="e_wo_entrp">    -42.98090510 </i>
    <i name="e_0_energy">    -42.98229710 </i>
   </energy>
  </scstep>
  <scstep>
   <time name="diag">    5.59    5.59</time>
   <time name="diis">   18.14   18.16</time>
   <time name="orth">    0.17    0.17</time>
   <time name="total">   27.04   27.07</time>
   <energy>
    <i name="e_fr_energy">    -42.98058677 </i>
    <i name="e_wo_entrp">    -42.97893402 </i>
    <i name="e_0_energy">    -42.98017358 </i>
   </energy>
  </scstep>
  <scstep>
   <time name="diag">    5.58    5.58</time>
   <time name="diis">   18.80   18.82</time>
   <time name="orth">    0.17    0.17</time>
   <time name="total">   27.68   27.71</time>
   <energy>
    <i name="e_fr_energy">    -42.89516036 </i>
    <i name="e_wo_entrp">    -42.89335528 </i>
    <i name="e_0_energy">    -42.89470909 </i>
   </energy>
  </scstep>
  <scstep>
   <time name="diag">    5.58    5.59</time>
   <time name="diis">   21.66   21.68</time>
   <time name="orth">    0.17    0.17</time>
   <time name="total">   30.55   30.58</time>
   <energy>
    <i name="e_fr_energy">    -42.82633477 </i>
    <i name="e_wo_entrp">    -42.82290496 </i>
    <i name="e_0_energy">    -42.82547732 </i>
   </energy>
  </scstep>
  <scstep>
   <time name="diag">    5.58    5.59</time>
   <time name="diis">   20.81   20.83</time>
   <time name="orth">    0.17    0.17</time>
   <time name="total">   29.70   29.78</time>
   <energy>
    <i name="e_fr_energy">    -42.66020490 </i>
    <i name="e_wo_entrp">    -42.65828063 </i>
    <i name="e_0_energy">    -42.65972383 </i>
   </energy>
  </scstep>
  <scstep>
   <time name="diag">    5.60    5.61</time>
   <time name="diis">   19.86   19.89</time>
   <time name="orth">    0.17    0.17</time>
   <time name="total">   28.79   28.82</time>
   <energy>
    <i name="e_fr_energy">    -42.43869481 </i>
    <i name="e_wo_entrp">    -42.43919796 </i>
    <i name="e_0_energy">    -42.43882060 </i>
   </energy>
  </scstep>
  <scstep>
   <time name="diag">    5.60    5.61</time>
   <time name="diis">   21.72   21.74</time>
   <time name="orth">    0.17    0.17</time>
   <time name="total">   30.64   30.68</time>
   <energy>
    <i name="e_fr_energy">    -42.30013537 </i>
    <i name="e_wo_entrp">    -42.30041848 </i>
    <i name="e_0_energy">    -42.30020615 </i>
   </energy>
  </scstep>
  <scstep>
   <time name="diag">    5.58    5.59</time>
   <time name="diis">   23.19   23.22</time>
   <time name="orth">    0.17    0.17</time>
   <time name="total">   32.08   32.12</time>
   <energy>
    <i name="e_fr_energy">    -42.27305680 </i>
    <i name="e_wo_entrp">    -42.27419249 </i>
    <i name="e_0_energy">    -42.27334072 </i>
   </energy>
  </scstep>
  <scstep>
   <time name="diag">    5.58    5.59</time>
   <time name="diis">   19.06   19.08</time>
   <time name="orth">    0.17    0.17</time>
   <time name="total">   27.95   27.99</time>
   <energy>
    <i name="e_fr_energy">    -42.30465737 </i>
    <i name="e_wo_entrp">    -42.30555172 </i>
    <i name="e_0_energy">    -42.30488096 </i>
   </energy>
  </scstep>
  <scstep>
   <time name="diag">    5.58    5.58</time>
   <time name="diis">   22.99   23.02</time>
   <time name="orth">    0.17    0.17</time>
   <time name="total">   31.88   31.92</time>
   <energy>
    <i name="e_fr_energy">    -42.33883946 </i>
    <i name="e_wo_entrp">    -42.33955781 </i>
    <i name="e_0_energy">    -42.33901904 </i>
   </energy>
  </scstep>
  <scstep>
   <time name="diag">    5.58    5.58</time>
   <time name="diis">   19.33   19.35</time>
   <time name="orth">    0.17    0.17</time>
   <time name="total">   28.23   28.26</time>
   <energy>
    <i name="e_fr_energy">    -42.31702375 </i>
    <i name="e_wo_entrp">    -42.31746881 </i>
    <i name="e_0_energy">    -42.31713501 </i>
   </energy>
  </scstep>
  <scstep>
   <time name="diag">    5.58    5.58</time>
   <time name="diis">   18.25   18.27</time>
   <time name="orth">    0.17    0.17</time>
   <time name="total">   27.14   27.18</time>
   <energy>
    <i name="e_fr_energy">    -42.01939455 </i>
    <i name="e_wo_entrp">    -42.01938741 </i>
    <i name="e_0_energy">    -42.01939277 </i>
   </energy>
  </scstep>
  <scstep>
   <time name="diag">    5.58    5.59</time>
   <time name="diis">   20.83   20.86</time>
   <time name="orth">    0.17    0.17</time>
   <time name="total">   29.74   29.77</time>
   <energy>
    <i name="e_fr_energy">    -41.88086778 </i>
    <i name="e_wo_entrp">    -41.88092229 </i>
    <i name="e_0_energy">    -41.88088141 </i>
   </energy>
  </scstep>
  <scstep>
   <time name="diag">    5.58    5.58</time>
   <time name="diis">   17.52   17.54</time>
   <time name="orth">    0.17    0.17</time>
   <time name="total">   26.42   26.46</time>
   <energy>
    <i name="e_fr_energy">    -42.01624742 </i>
    <i name="e_wo_entrp">    -42.01660185 </i>
    <i name="e_0_energy">    -42.01633603 </i>
   </energy>
  </scstep>
  <scstep>
   <time name="diag">    5.58    5.58</time>
   <time name="diis">   20.12   20.15</time>
   <time name="orth">    0.17    0.17</time>
   <time name="total">   29.02   29.06</time>
   <energy>
    <i name="e_fr_energy">    -42.07397985 </i>
    <i name="e_wo_entrp">    -42.07465011 </i>
    <i name="e_0_energy">    -42.07414741 </i>
   </energy>
  </scstep>
  <scstep>
   <time name="diag">    5.58    5.58</time>
   <time name="diis">   18.07   18.09</time>
   <time name="orth">    0.17    0.17</time>
   <time name="total">   26.98   27.01</time>
   <energy>
    <i name="e_fr_energy">    -42.01712970 </i>
    <i name="e_wo_entrp">    -42.01782899 </i>
    <i name="e_0_energy">    -42.01730453 </i>
   </energy>
  </scstep>
  <scstep>
   <time name="diag">    5.58    5.58</time>
   <time name="diis">   21.84   21.86</time>
   <time name="orth">    0.17    0.17</time>
   <time name="total">   30.74   30.77</time>
   <energy>
    <i name="e_fr_energy">    -42.00091904 </i>
    <i name="e_wo_entrp">    -42.00179685 </i>
    <i name="e_0_energy">    -42.00113849 </i>
   </energy>
  </scstep>
  <scstep>
   <time name="diag">    5.58    5.58</time>
   <time name="diis">   18.68   18.70</time>
   <time name="orth">    0.17    0.17</time>
   <time name="total">   27.58   27.61</time>
   <energy>
    <i name="e_fr_energy">    -42.00893491 </i>
    <i name="e_wo_entrp">    -42.01021761 </i>
    <i name="e_0_energy">    -42.00925558 </i>
   </energy>
  </scstep>
  <scstep>
   <time name="diag">    5.58    5.58</time>
   <time name="diis">   18.81   18.83</time>
   <time name="orth">    0.17    0.17</time>
   <time name="total">   27.72   27.75</time>
   <energy>
    <i name="e_fr_energy">    -41.76378853 </i>
    <i name="e_wo_entrp">    -41.76452219 </i>
    <i name="e_0_energy">    -41.76397195 </i>
   </energy>
  </scstep>
  <scstep>
   <time name="diag">    5.58    5.59</time>
   <time name="diis">   21.96   21.99</time>
   <time name="orth">    0.17    0.17</time>
   <time name="total">   30.88   30.91</time>
   <energy>
    <i name="e_fr_energy">    -41.95853024 </i>
    <i name="e_wo_entrp">    -41.96081067 </i>
    <i name="e_0_energy">    -41.95910034 </i>
   </energy>
  </scstep>
  <scstep>
   <time name="diag">    5.58    5.59</time>
   <time name="diis">   19.85   19.87</time>
   <time name="orth">    0.17    0.17</time>
   <time name="total">   28.75   28.78</time>
   <energy>
    <i name="e_fr_energy">    -42.14531160 </i>
    <i name="e_wo_entrp">    -42.14814512 </i>
    <i name="e_0_energy">    -42.14601998 </i>
   </energy>
  </scstep>
  <scstep>
   <time name="diag">    5.54    5.55</time>
   <time name="diis">   18.09   18.10</time>
   <time name="orth">    0.17    0.17</time>
   <time name="total">   26.95   26.97</time>
   <energy>
    <i name="e_fr_energy">    -42.52614666 </i>
    <i name="e_wo_entrp">    -42.52514864 </i>
    <i name="e_0_energy">    -42.52589715 </i>
   </energy>
  </scstep>
  <scstep>
   <time name="diag">    5.54    5.55</time>
   <time name="diis">   20.42   20.44</time>
   <time name="orth">    0.17    0.17</time>
   <time name="total">   29.29   29.31</time>
   <energy>
    <i name="e_fr_energy">    -42.63565418 </i>
    <i name="e_wo_entrp">    -42.63375999 </i>
    <i name="e_0_energy">    -42.63518064 </i>
   </energy>
  </scstep>
  <scstep>
   <time name="diag">    5.54    5.55</time>
   <time name="diis">   19.05   19.07</time>
   <time name="orth">    0.17    0.17</time>
   <time name="total">   27.96   27.98</time>
   <energy>
    <i name="e_fr_energy">    -42.82508588 </i>
    <i name="e_wo_entrp">    -42.82696908 </i>
    <i name="e_0_energy">    -42.82555668 </i>
   </energy>
  </scstep>
  <scstep>
   <time name="diag">    5.54    5.55</time>
   <time name="diis">   20.05   20.06</time>
   <time name="orth">    0.17    0.17</time>
   <time name="total">   28.94   28.96</time>
   <energy>
    <i name="e_fr_energy">    -42.80256497 </i>
    <i name="e_wo_entrp">    -42.80282991 </i>
    <i name="e_0_energy">    -42.80263120 </i>
   </energy>
  </scstep>
  <scstep>
   <time name="diag">    5.68    5.69</time>
   <time name="diis">   21.22   21.24</time>
   <time name="orth">    0.17    0.17</time>
   <time name="total">   30.23   30.26</time>
   <energy>
    <i name="e_fr_energy">    -42.86814807 </i>
    <i name="e_wo_entrp">    -42.86839271 </i>
    <i name="e_0_energy">    -42.86820923 </i>
   </energy>
  </scstep>
  <scstep>
   <time name="diag">    5.54    5.55</time>
   <time name="diis">   20.82   20.83</time>
   <time name="orth">    0.17    0.17</time>
   <time name="total">   29.68   29.71</time>
   <energy>
    <i name="e_fr_energy">    -42.85571551 </i>
    <i name="e_wo_entrp">    -42.85632516 </i>
    <i name="e_0_energy">    -42.85586792 </i>
   </energy>
  </scstep>
  <scstep>
   <time name="diag">    5.54    5.55</time>
   <time name="diis">   18.48   18.50</time>
   <time name="orth">    0.17    0.17</time>
   <time name="total">   27.35   27.37</time>
   <energy>
    <i name="e_fr_energy">    -42.81357500 </i>
    <i name="e_wo_entrp">    -42.81359460 </i>
    <i name="e_0_energy">    -42.81357990 </i>
   </energy>
  </scstep>
  <scstep>
   <time name="diag">    5.54    5.55</time>
   <time name="diis">   19.10   19.12</time>
   <time name="orth">    0.17    0.17</time>
   <time name="total">   25.13   25.15</time>
   <energy>
    <i name="alphaZ">    180.65182707 </i>
    <i name="ewald">   5164.45476024 </i>
    <i name="hartreedc">  -8869.93855071 </i>
    <i name="XCdc">     19.86792772 </i>
    <i name="pawpsdc">   3780.70642858 </i>
    <i name="pawaedc">  -3830.18138170 </i>
    <i name="eentropy">      0.00041963 </i>
    <i name="bandstr">    -54.22715335 </i>
    <i name="atom">   3565.76896863 </i>
    <i name="e_fr_energy">    -42.89675388 </i>
    <i name="e_wo_entrp">    -42.89717352 </i>
    <i name="e_0_energy">    -42.89685879 </i>
   </energy>
  </scstep>
  <structure>
   <crystal>
    <varray name="basis" >
     <v>       1.41000000       2.44200000       0.00000000 </v>
     <v>      -1.41000000       2.44200000       0.00000000 </v>
     <v>       0.00000000       0.00000000      20.00000000 </v>
    </varray>
    <i name="volume">    137.72880000 </i>
    <varray name="rec_basis" >
     <v>       0.35460993       0.20475020       0.00000000 </v>
     <v>      -0.35460993       0.20475020       0.00000000 </v>
     <v>       0.00000000       0.00000000       0.05000000 </v>
    </varray>
   </crystal>
   <varray name="positions" >
    <v>       0.00000000       0.00000000       0.00000000 </v>
    <v>       0.40828033       0.40828033       0.09970206 </v>
    <v>       0.81656066       0.81656066       0.19940411 </v>
    <v>       0.22484098       0.22484098       0.29910617 </v>
    <v>       0.63312131       0.63312131       0.39880822 </v>
    <v>       0.04140164       0.04140164       0.49851028 </v>
   </varray>
  </structure>
  <varray name="forces" >
   <v>       0.00000000       0.00186565       0.74527959 </v>
   <v>       0.00000000       0.31479170       0.47078374 </v>
   <v>       0.00000000      -0.17101614      -0.54842251 </v>
   <v>       0.00000000       0.03597389      -0.24820923 </v>
   <v>       0.00000000       0.03812693       0.94967168 </v>
   <v>       0.00000000      -0.21974203      -1.36910327 </v>
  </varray>
  <varray name="stress" >
   <v>    -176.87049674       0.00000000       0.00000000 </v>
   <v>       0.00000000    -211.83106170     -21.98680332 </v>
   <v>       0.00000000     -21.98680342    -128.87279475 </v>
  </varray>
  <energy>
   <i name="e_fr_energy">    -42.89675388 </i>
   <i name="e_wo_entrp">    -42.89685879 </i>
   <i name="e_0_energy">      0.00041963 </i>
  </energy>
  <time name="totalsc"> 1693.11 1697.28</time>
 </calculation>
 <calculation>
  <scstep>
   <time name="dav">   20.81   22.43</time>
   <time name="total">   23.93   25.57</time>
   <energy>
    <i name="alphaZ">    180.65182707 </i>
    <i name="ewald">   5225.25170621 </i>
    <i name="hartreedc">  -8928.94051518 </i>
    <i name="XCdc">     19.42752455 </i>
    <i name="pawpsdc">   3778.46874354 </i>
    <i name="pawaedc">  -3827.84456925 </i>
    <i name="eentropy">     -0.00154568 </i>
    <i name="bandstr">    -55.84460087 </i>
    <i name="atom">   3565.76896863 </i>
    <i name="e_fr_energy">    -43.06246098 </i>
    <i name="e_wo_entrp">    -43.06091530 </i>
    <i name="e_0_energy">    -43.06207456 </i>
   </energy>
  </scstep>
  <scstep>
   <time name="diag">    5.56    5.57</time>
   <time name="diis">   17.30   17.31</time>
   <time name="orth">    0.17    0.17</time>
   <time name="total">   26.20   26.22</time>
   <energy>
    <i name="e_fr_energy">    -43.63189437 </i>
    <i name="e_wo_entrp">    -43.63211315 </i>
    <i name="e_0_energy">    -43.63194907 </i>
   </energy>
  </scstep>
  <scstep>
   <time name="diag">    5.56    5.57</time>
   <time name="diis">   19.17   19.19</time>
   <time name="orth">    0.17    0.17</time>
   <time name="total">   28.03   28.05</time>
   <energy>
    <i name="e_fr_energy">    -43.32671885 </i>
    <i name="e_wo_entrp">    -43.32635630 </i>
    <i name="e_0_energy">    -43.32662821 </i>
   </energy>
  </scstep>
  <scstep>
   <time name="diag">    5.56    5.57</time>
   <time name="diis">   16.99   17.01</time>
   <time name="orth">    0.17    0.17</time>
   <time name="total">   25.94   26.07</time>
   <energy>
    <i name="e_fr_energy">    -43.26063256 </i>
    <i name="e_wo_entrp">    -43.26146310 </i>
    <i name="e_0_energy">    -43.26084019 </i>
   </energy>
  </scstep>
  <scstep>
   <time name="diag">    5.68    5.69</time>
   <time name="diis">   18.16   18.17</time>
   <time name="orth">    0.17    0.17</time>
   <time name="total">   27.17   27.22</time>
   <energy>
    <i name="e_fr_energy">    -43.25485485 </i>
    <i name="e_wo_entrp">    -43.25242521 </i>
    <i name="e_0_energy">    -43.25424744 </i>
   </energy>
  </scstep>
  <scstep>
   <time name="diag">    5.72    5.72</time>
   <time name="diis">   17.43   17.45</time>
   <time name="orth">    0.17    0.17</time>
   <time name="total">   26.46   26.48</time>
   <energy>
    <i name="e_fr_energy">    -43.19308526 </i>
    <i name="e_wo_entrp">    -43.19373200 </i>
    <i name="e_0_energy">    -43.19324695 </i>
   </energy>
  </scstep>
  <scstep>
   <time name="diag">    5.54    5.55</time>
   <time name="diis">   21.88   21.89</time>
   <time name="orth">    0.17    0.17</time>
   <time name="total">   30.69   30.72</time>
   <energy>
    <i name="e_fr_energy">    -43.21014180 </i>
    <i name="e_wo_entrp">    -43.21130168 </i>
    <i name="e_0_energy">    -43.21043177 </i>
   </energy>
  </scstep>
  <scstep>
   <time name="diag">    5.54    5.54</time>
   <time name="diis">   16.92   16.93</time>
   <time name="orth">    0.17    0.17</time>
   <time name="total">   25.78   25.80</time>
   <energy>
    <i name="e_fr_energy">    -43.19214416 </i>
    <i name="e_wo_entrp">    -43.19228312 </i>
    <i name="e_0_energy">    -43.19217890 </i>
   </energy>
  </scstep>
  <scstep>
   <time name="diag">    5.66    5.66</time>
   <time name="diis">   19.74   19.75</time>
   <time name="orth">    0.17    0.17</time>
   <time name="total">   28.68   28.73</time>
   <energy>
    <i name="e_fr_energy">    -43.18712376 </i>
    <i name="e_wo_entrp">    -43.18728405 </i>
    <i name="e_0_energy">    -43.18716383 </i>
   </energy>
  </scstep>
  <scstep>
   <time name="diag">    5.72    5.72</time>
   <time name="diis">   18.18   18.19</time>
   <time name="orth">    0.17    0.17</time>
   <time name="total">   27.23   27.29</time>
   <energy>
    <i name="e_fr_energy">    -43.18732614 </i>
    <i name="e_wo_entrp">    -43.18730192 </i>
    <i name="e_0_energy">    -43.18732009 </i>
   </energy>
  </scstep>
  <scstep>
   <time name="diag">    5.54    5.55</time>
   <time name="diis">   18.15   18.16</time>
   <time name="orth">    0.17    0.17</time>
   <time name="total">   26.97   26.99</time>
   <energy>
    <i name="e_fr_energy">    -43.16967589 </i>
    <i name="e_wo_entrp">    -43.17172628 </i>
    <i name="e_0_energy">    -43.17018849 </i>
   </energy>
  </scstep>
  <scstep>
   <time name="diag">    5.65    5.66</time>
   <time name="diis">   21.46   21.48</time>
   <time name="orth">    0.17    0.17</time>
   <time name="total">   30.49   30.59</time>
   <energy>
    <i name="e_fr_energy">    -43.17073105 </i>
    <i name="e_wo_entrp">    -43.17274680 </i>
    <i name="e_0_energy">    -43.17123498 </i>
   </energy>
  </scstep>
  <scstep>
   <time name="diag">    5.56    5.56</time>
   <time name="diis">   17.71   17.72</time>
   <time name="orth">    0.17    0.17</time>
   <time name="total">   26.56   26.58</time>
   <energy>
    <i name="e_fr_energy">    -43.10660000 </i>
    <i name="e_wo_entrp">    -43.11195947 </i>
    <i name="e_0_energy">    -43.10793987 </i>
   </energy>
  </scstep>
  <scstep>
   <time name="diag">    5.54    5.54</time>
   <time name="diis">   18.49   18.50</time>
   <time name="orth">    0.17    0.17</time>
   <time name="total">   27.39   27.41</time>
   <energy>
    <i name="e_fr_energy">    -43.05414130 </i>
    <i name="e_wo_entrp">    -43.05928339 </i>
    <i name="e_0_energy">    -43.05542683 </i>
   </energy>
  </scstep>
  <scstep>
   <time name="diag">    5.70    5.71</time>
   <time name="diis">   20.02   20.04</time>
   <time name="orth">    0.17    0.17</time>
   <time name="total">   29.04   29.06</time>
   <energy>
    <i name="e_fr_energy">    -43.07067489 </i>
    <i name="e_wo_entrp">    -43.07346029 </i>
    <i name="e_0_energy">    -43.07137124 </i>
   </energy>
  </scstep>
  <scstep>
   <time name="diag">    5.54    5.54</time>
   <time name="diis">   17.69   17.71</time>
   <time name="orth">    0.17    0.17</time>
   <time name="total">   26.59   26.64</time>
   <energy>
    <i name="e_fr_energy">    -43.10233067 </i>
    <i name="e_wo_entrp">    -43.10572363 </i>
    <i name="e_0_energy">    -43.10317891 </i>
   </energy>
  </scstep>
  <scstep>
   <time name="diag">    5.56    5.57</time>
   <time name="diis">   22.01   22.03</time>
   <time name="orth">    0.17    0.17</time>
   <time name="total">   30.86   31.02</time>
   <energy>
    <i name="e_fr_energy">    -43.10564306 </i>
    <i name="e_wo_entrp">    -43.10888889 </i>
    <i name="e_0_energy">    -43.10645452 </i>
   </energy>
  </scstep>
  <scstep>
   <time name="diag">    5.65    5.66</time>
   <time name="diis">   17.92   17.94</time>
   <time name="orth">    0.17    0.17</time>
   <time name="total">   26.87   26.96</time>
   <energy>
    <i name="e_fr_energy">    -43.11929628 </i>
    <i name="e_wo_entrp">    -43.12257975 </i>
    <i name="e_0_energy">    -43.12011714 </i>
   </energy>
  </scstep>
  <scstep>
   <time name="diag">    5.64    5.65</time>
   <time name="diis">   19.44   19.45</time>
   <time name="orth">    0.17    0.17</time>
   <time name="total">   28.44   28.50</time>
   <energy>
    <i name="e_fr_energy">    -43.13152102 </i>
    <i name="e_wo_entrp">    -43.13521919 </i>
    <i name="e_0_energy">    -43.13244556 </i>
   </energy>
  </scstep>
  <scstep>
   <time name="diag">    5.68    5.68</time>
   <time name="diis">   18.46   18.48</time>
   <time name="orth">    0.17    0.17</time>
   <time name="total">   27.44   27.54</time>
   <energy>
    <i name="e_fr_energy">    -43.12500613 </i>
    <i name="e_wo_entrp">    -43.12975133 </i>
    <i name="e_0_energy">    -43.12619243 </i>
   </energy>
  </scstep>
  <scstep>
   <time name="diag">    5.57    5.58</time>
   <time name="diis">   22.14   22.17</time>
   <time name="orth">    0.17    0.17</time>
   <time name="total">   31.10   31.25</time>
   <energy>
    <i name="e_fr_energy">    -43.12337204 </i>
    <i name="e_wo_entrp">    -43.12833132 </i>
    <i name="e_0_energy">    -43.12461186 </i>
   </energy>
  </scstep>
  <scstep>
   <time name="diag">    5.73    5.74</time>
   <time name="diis">   17.10   17.12</time>
   <time name="orth">    0.17    0.17</time>
   <time name="total">   26.14   26.21</time>
   <energy>
    <i name="e_fr_energy">    -43.11917260 </i>
    <i name="e_wo_entrp">    -43.12385898 </i>
    <i name="e_0_energy">    -43.12034420 </i>
   </energy>
  </scstep>
  <scstep>
   <time name="diag">    5.70    5.71</time>
   <time name="diis">   18.76   18.77</time>
   <time name="orth">    0.17    0.17</time>
   <time name="total">   27.82   27.85</time>
   <energy>
    <i name="e_fr_energy">    -43.10878456 </i>
    <i name="e_wo_entrp">    -43.11287444 </i>
    <i name="e_0_energy">    -43.10980703 </i>
   </energy>
  </scstep>
  <scstep>
   <time name="diag">    5.58    5.59</time>
   <time name="diis">   19.34   19.35</time>
   <time name="orth">    0.17    0.17</time>
   <time name="total">   28.22   28.24</time>
   <energy>
    <i name="e_fr_energy">    -43.11415942 </i>
    <i name="e_wo_entrp">    -43.11823028 </i>
    <i name="e_0_energy">    -43.11517714 </i>
   </energy>
  </scstep>
  <scstep>
   <time name="diag">    5.60    5.60</time>
   <time name="diis">   19.55   19.57</time>
   <time name="orth">    0.17    0.17</time>
   <time name="total">   28.51   28.54</time>
   <energy>
    <i name="e_fr_energy">    -43.13218433 </i>
    <i name="e_wo_entrp">    -43.13587263 </i>
    <i name="e_0_energy">    -43.13310641 </i>
   </energy>
  </scstep>
  <scstep>
   <time name="diag">    5.65    5.66</time>
   <time name="diis">   19.50   19.52</time>
   <time name="orth">    0.17    0.17</time>
   <time name="total">   28.46   28.52</time>
   <energy>
    <i name="e_fr_energy">    -43.15495165 </i>
    <i name="e_wo_entrp">    -43.15824772 </i>
    <i name="e_0_energy">    -43.15577566 </i>
   </energy>
  </scstep>
  <scstep>
   <time name="diag">    5.64    5.64</time>
   <time name="diis">   20.14   20.16</time>
   <time name="orth">    0.17    0.17</time>
   <time name="total">   29.11   29.17</time>
   <energy>
    <i name="e_fr_energy">    -43.16906080 </i>
    <i name="e_wo_entrp">    -43.17201670 </i>
    <i name="e_0_energy">    -43.16979978 </i>
   </energy>
  </scstep>
  <scstep>
   <time name="diag">    5.57    5.58</time>
   <time name="diis">   19.59   19.61</time>
   <time name="orth">    0.17    0.17</time>
   <time name="total">   28.47   28.50</time>
   <energy>
    <i name="e_fr_energy">    -43.17791856 </i>
    <i name="e_wo_entrp">    -43.18059337 </i>
    <i name="e_0_energy">    -43.17858726 </i>
   </energy>
  </scstep>
  <scstep>
   <time name="diag">    5.57    5.58</time>
   <time name="diis">   20.33   20.35</time>
   <time name="orth">    0.17    0.17</time>
   <time name="total">   29.22   29.25</time>
   <energy>
    <i name="e_fr_energy">    -43.18322301 </i>
    <i name="e_wo_entrp">    -43.18561581 </i>
    <i name="e_0_energy">    -43.18382121 </i>
   </energy>
  </scstep>
  <scstep>
   <time name="diag">    5.58    5.58</time>
   <time name="diis">   20.68   20.71</time>
   <time name="orth">    0.17    0.17</time>
   <time name="total">   29.58   29.61</time>
   <energy>
    <i name="e_fr_energy">    -43.18526675 </i>
    <i name="e_wo_entrp">    -43.18735022 </i>
    <i name="e_0_energy">    -43.18578762 </i>
   </energy>
  </scstep>
  <scstep>
   <time name="diag">    5.57    5.58</time>
   <time name="diis">   21.26   21.28</time>
   <time name="orth">    0.17    0.17</time>
   <time name="total">   30.15   30.18</time>
   <energy>
    <i name="e_fr_energy">    -43.18614636 </i>
    <i name="e_wo_entrp">    -43.18795461 </i>
    <i name="e_0_energy">    -43.18659842 </i>
   </energy>
  </scstep>
  <scstep>
   <time name="diag">    5.57    5.58</time>
   <time name="diis">   20.69   20.72</time>
   <time name="orth">    0.17    0.17</time>
   <time name="total">   29.58   29.61</time>
   <energy>
    <i name="e_fr_energy">    -43.18675762 </i>
    <i name="e_wo_entrp">    -43.18837721 </i>
    <i name="e_0_energy">    -43.18716252 </i>
   </energy>
  </scstep>
  <scstep>
   <time name="diag">    5.56    5.56</time>
   <time name="diis">   18.26   18.29</time>
   <time name="orth">    0.17    0.17</time>
   <time name="total">   27.13   27.36</time>
   <energy>
    <i name="e_fr_energy">    -43.18705569 </i>
    <i name="e_wo_entrp">    -43.18856749 </i>
    <i name="e_0_energy">    -43.18743364 </i>
   </energy>
  </scstep>
  <scstep>
   <time name="diag">    5.67    5.68</time>
   <time name="diis">   15.73   15.75</time>
   <time name="orth">    0.17    0.17</time>
   <time name="total">   24.72   25.63</time>
   <energy>
    <i name="e_fr_energy">    -43.18674035 </i>
    <i name="e_wo_entrp">    -43.18829216 </i>
    <i name="e_0_energy">    -43.18712830 </i>
   </energy>
  </scstep>
  <scstep>
   <time name="diag">    5.73    5.73</time>
   <time name="diis">   12.68   12.69</time>
   <time name="orth">    0.17    0.17</time>
   <time name="total">   21.82   21.88</time>
   <energy>
    <i name="e_fr_energy">    -43.18663060 </i>
    <i name="e_wo_entrp">    -43.18822924 </i>
    <i name="e_0_energy">    -43.18703026 </i>
   </energy>
  </scstep>
  <scstep>
   <time name="diag">    5.70    5.71</time>
   <time name="diis">   11.18   11.19</time>
   <time name="orth">    0.17    0.17</time>
   <time name="total">   20.21   20.23</time>
   <energy>
    <i name="e_fr_energy">    -43.18669447 </i>
    <i name="e_wo_entrp">    -43.18831100 </i>
    <i name="e_0_energy">    -43.18709861 </i>
   </energy>
  </scstep>
  <scstep>
   <time name="diag">    5.58    5.58</time>
   <time name="diis">   11.20   11.21</time>
   <time name="orth">    0.17    0.17</time>
   <time name="total">   20.09   20.14</time>
   <energy>
    <i name="e_fr_energy">    -43.18682989 </i>
    <i name="e_wo_entrp">    -43.18843494 </i>
    <i name="e_0_energy">    -43.18723115 </i>
   </energy>
  </scstep>
  <scstep>
   <time name="diag">    5.59    5.60</time>
   <time name="diis">   11.53   11.54</time>
   <time name="orth">    0.17    0.17</time>
   <time name="total">   20.44   20.45</time>
   <energy>
    <i name="e_fr_energy">    -43.18698415 </i>
    <i name="e_wo_entrp">    -43.18855511 </i>
    <i name="e_0_energy">    -43.18737689 </i>
   </energy>
  </scstep>
  <scstep>
   <time name="diag">    5.61    5.62</time>
   <time name="diis">   14.10   14.11</time>
   <time name="orth">    0.17    0.17</time>
   <time name="total">   23.02   23.05</time>
   <energy>
    <i name="e_fr_energy">    -43.18718792 </i>
    <i name="e_wo_entrp">    -43.18869376 </i>
    <i name="e_0_energy">    -43.18756438 </i>
   </energy>
  </scstep>
  <scstep>
   <time name="diag">    5.73    5.73</time>
   <time name="diis">   15.44   15.46</time>
   <time name="orth">    0.17    0.17</time>
   <time name="total">   24.50   24.52</time>
   <energy>
    <i name="e_fr_energy">    -43.18734069 </i>
    <i name="e_wo_entrp">    -43.18877129 </i>
    <i name="e_0_energy">    -43.18769834 </i>
   </energy>
  </scstep>
  <scstep>
   <time name="diag">    5.57    5.58</time>
   <time name="diis">   17.75   17.77</time>
   <time name="orth">    0.17    0.17</time>
   <time name="total">   26.65   26.68</time>
   <energy>
    <i name="e_fr_energy">    -43.18753092 </i>
    <i name="e_wo_entrp">    -43.18886687 </i>
    <i name="e_0_energy">    -43.18786491 </i>
   </energy>
  </scstep>
  <scstep>
   <time name="diag">    5.74    5.74</time>
   <time name="diis">   18.81   18.83</time>
   <time name="orth">    0.17    0.17</time>
   <time name="total">   27.96   27.99</time>
   <energy>
    <i name="e_fr_energy">    -43.18769045 </i>
    <i name="e_wo_entrp">    -43.18893725 </i>
    <i name="e_0_energy">    -43.18800215 </i>
   </energy>
  </scstep>
  <scstep>
   <time name="diag">    5.63    5.64</time>
   <time name="diis">   16.40   16.42</time>
   <time name="orth">    0.17    0.17</time>
   <time name="total">   25.38   25.44</time>
   <energy>
    <i name="e_fr_energy">    -43.18780769 </i>
    <i name="e_wo_entrp">    -43.18900861 </i>
    <i name="e_0_energy">    -43.18810792 </i>
   </energy>
  </scstep>
  <scstep>
   <time name="diag">    5.56    5.56</time>
   <time name="diis">   13.68   13.70</time>
   <time name="orth">    0.17    0.17</time>
   <time name="total">   22.58   22.60</time>
   <energy>
    <i name="e_fr_energy">    -43.18783554 </i>
    <i name="e_wo_entrp">    -43.18901817 </i>
    <i name="e_0_energy">    -43.18813120 </i>
   </energy>
  </scstep>
  <scstep>
   <time name="diag">    5.57    5.58</time>
   <time name="diis">   11.76   11.77</time>
   <time name="orth">    0.17    0.17</time>
   <time name="total">   20.67   20.70</time>
   <energy>
    <i name="e_fr_energy">    -43.18782553 </i>
    <i name="e_wo_entrp">    -43.18899970 </i>
    <i name="e_0_energy">    -43.18811907 </i>
   </energy>
  </scstep>
  <scstep>
   <time name="diag">    5.64    5.65</time>
   <time name="diis">   11.19   11.20</time>
   <time name="orth">    0.17    0.17</time>
   <time name="total">   20.16   20.18</time>
   <energy>
    <i name="e_fr_energy">    -43.18779062 </i>
    <i name="e_wo_entrp">    -43.18896230 </i>
    <i name="e_0_energy">    -43.18808354 </i>
   </energy>
  </scstep>
  <scstep>
   <time name="diag">    5.56    5.57</time>
   <time name="diis">   10.70   10.71</time>
   <time name="orth">    0.17    0.17</time>
   <time name="total">   19.66   19.68</time>
   <energy>
    <i name="e_fr_energy">    -43.18777904 </i>
    <i name="e_wo_entrp">    -43.18894973 </i>
    <i name="e_0_energy">    -43.18807171 </i>
   </energy>
  </scstep>
  <scstep>
   <time name="diag">    5.66    5.67</time>
   <time name="diis">   10.65   10.66</time>
   <time name="orth">    0.17    0.17</time>
   <time name="total">   16.80   16.82</time>
   <energy>
    <i name="alphaZ">    180.65182707 </i>
    <i name="ewald">   5225.25170621 </i>
    <i name="hartreedc">  -8932.03280667 </i>
    <i name="XCdc">     18.99079971 </i>
    <i name="pawpsdc">   3793.27859866 </i>
    <i name="pawaedc">  -3842.84959200 </i>
    <i name="eentropy">      0.00116603 </i>
    <i name="bandstr">    -52.24845108 </i>
    <i name="atom">   3565.76896863 </i>
    <i name="e_fr_energy">    -43.18778344 </i>
    <i name="e_wo_entrp">    -43.18894948 </i>
    <i name="e_0_energy">    -43.18807495 </i>
   </energy>
  </scstep>
  <structure>
   <crystal>
    <varray name="basis" >
     <v>       1.41000000       2.44200000       0.00000000 </v>
     <v>      -1.41000000       2.44200000       0.00000000 </v>
     <v>       0.00000000       0.00000000      20.00000000 </v>
    </varray>
    <i name="volume">    137.72880000 </i>
    <varray name="rec_basis" >
     <v>       0.35460993       0.20475020       0.00000000 </v>
     <v>      -0.35460993       0.20475020       0.00000000 </v>
     <v>       0.00000000       0.00000000       0.05000000 </v>
    </varray>
   </crystal>
   <varray name="positions" >
    <v>       0.00000000       0.00000000       0.00000000 </v>
    <v>       0.40828033       0.40828033       0.09970206 </v>
    <v>       0.81487141       0.81487141       0.19808124 </v>
    <v>       0.22519632       0.22519632       0.29850745 </v>
    <v>       0.63349792       0.63349792       0.40109896 </v>
    <v>       0.03923110       0.03923110       0.49520782 </v>
   </varray>
  </structure>
  <varray name="forces" >
   <v>       0.00000000       0.00090763       0.82644602 </v>
   <v>       0.00000000       0.36138350       0.25287935 </v>
   <v>       0.00000000      -0.25392246      -0.42713577 </v>
   <v>       0.00000000      -0.01009489      -0.08749905 </v>
   <v>       0.00000000       0.31029320       0.68003944 </v>
   <v>       0.00000000      -0.40856697      -1.24473000 </v>
  </varray>
  <varray name="stress" >
   <v>    -197.01042185       0.00000000       0.00000000 </v>
   <v>       0.00000000    -234.76313753     -22.19025276 </v>
   <v>       0.00000000     -22.19025257    -101.21291959 </v>
  </varray>
  <energy>
   <i name="e_fr_energy">    -43.18778344 </i>
   <i name="e_wo_entrp">    -43.18807495 </i>
   <i name="e_0_energy">      0.00116603 </i>
  </energy>
  <time name="totalsc"> 1273.26 1279.44</time>
 </calculation>
 <calculation>
  <scstep>
   <time name="dav">   20.88   21.12</time>
   <time name="total">   24.00   24.29</time>
   <energy>
    <i name="alphaZ">    180.65182707 </i>
    <i name="ewald">   5423.23466838 </i>
    <i name="hartreedc">  -9125.83675276 </i>
    <i name="XCdc">     19.53062182 </i>
    <i name="pawpsdc">   3793.28072814 </i>
    <i name="pawaedc">  -3842.85174715 </i>
    <i name="eentropy">      0.00015976 </i>
    <i name="bandstr">    -56.62716785 </i>
    <i name="atom">   3565.76896863 </i>
    <i name="e_fr_energy">    -42.84869396 </i>
    <i name="e_wo_entrp">    -42.84885371 </i>
    <i name="e_0_energy">    -42.84873389 </i>
   </energy>
  </scstep>
  <scstep>
   <time name="diag">    5.58    5.59</time>
   <time name="diis">   18.47   18.49</time>
   <time name="orth">    0.17    0.17</time>
   <time name="total">   27.37   27.40</time>
   <energy>
    <i name="e_fr_energy">    -58.58693054 </i>
    <i name="e_wo_entrp">    -58.58544797 </i>
    <i name="e_0_energy">    -58.58655990 </i>
   </energy>
  </scstep>
  <scstep>
   <time name="diag">    5.79    5.79</time>
   <time name="diis">   17.32   17.34</time>
   <time name="orth">    0.17    0.17</time>
   <time name="total">   26.54   26.56</time>
   <energy>
    <i name="e_fr_energy">    -47.98673709 </i>
    <i name="e_wo_entrp">    -47.98535154 </i>
    <i name="e_0_energy">    -47.98639070 </i>
   </energy>
  </scstep>
  <scstep>
   <time name="diag">    5.67    5.67</time>
   <time name="diis">   17.56   17.58</time>
   <time name="orth">    0.17    0.17</time>
   <time name="total">   26.56   26.59</time>
   <energy>
    <i name="e_fr_energy">    -43.47554319 </i>
    <i name="e_wo_entrp">    -43.47196801 </i>
    <i name="e_0_energy">    -43.47464939 </i>
   </energy>
  </scstep>
  <scstep>
   <time name="diag">    5.61    5.61</time>
   <time name="diis">   19.08   19.10</time>
   <time name="orth">    0.17    0.17</time>
   <time name="total">   28.06   28.09</time>
   <energy>
    <i name="e_fr_energy">    -43.73020120 </i>
    <i name="e_wo_entrp">    -43.73120885 </i>
    <i name="e_0_energy">    -43.73045312 </i>
   </energy>
  </scstep>
  <scstep>
   <time name="diag">    5.77    5.77</time>
   <time name="diis">   18.69   18.71</time>
   <time name="orth">    0.17    0.17</time>
   <time name="total">   27.86   27.89</time>
   <energy>
    <i name="e_fr_energy">    -43.40001410 </i>
    <i name="e_wo_entrp">    -43.39996889 </i>
    <i name="e_0_energy">    -43.40000280 </i>
   </energy>
  </scstep>
  <scstep>
   <time name="diag">    5.58    5.58</time>
   <time name="diis">   19.16   19.18</time>
   <time name="orth">    0.17    0.17</time>
   <time name="total">   28.06   28.08</time>
   <energy>
    <i name="e_fr_energy">    -43.32059441 </i>
    <i name="e_wo_entrp">    -43.32035909 </i>
    <i name="e_0_energy">    -43.32053558 </i>
   </energy>
  </scstep>
  <scstep>
   <time name="diag">    5.70    5.70</time>
   <time name="diis">   17.89   17.91</time>
   <time name="orth">    0.17    0.17</time>
   <time name="total">   26.89   26.92</time>
   <energy>
    <i name="e_fr_energy">    -43.27219616 </i>
    <i name="e_wo_entrp">    -43.27287576 </i>
    <i name="e_0_energy">    -43.27236606 </i>
   </energy>
  </scstep>
  <scstep>
   <time name="diag">    5.59    5.60</time>
   <time name="diis">   19.02   19.04</time>
   <time name="orth">    0.17    0.17</time>
   <time name="total">   27.90   27.93</time>
   <energy>
    <i name="e_fr_energy">    -43.28511121 </i>
    <i name="e_wo_entrp">    -43.28444963 </i>
    <i name="e_0_energy">    -43.28494581 </i>
   </energy>
  </scstep>
  <scstep>
   <time name="diag">    5.59    5.59</time>
   <time name="diis">   18.48   18.49</time>
   <time name="orth">    0.17    0.17</time>
   <time name="total">   27.46   27.49</time>
   <energy>
    <i name="e_fr_energy">    -43.27551998 </i>
    <i name="e_wo_entrp">    -43.27563645 </i>
    <i name="e_0_energy">    -43.27554910 </i>
   </energy>
  </scstep>
  <scstep>
   <time name="diag">    5.62    5.62</time>
   <time name="diis">   23.29   23.31</time>
   <time name="orth">    0.17    0.17</time>
   <time name="total">   32.20   32.23</time>
   <energy>
    <i name="e_fr_energy">    -43.27681714 </i>
    <i name="e_wo_entrp">    -43.27689976 </i>
    <i name="e_0_energy">    -43.27683779 </i>
   </energy>
  </scstep>
  <scstep>
   <time name="diag">    5.61    5.62</time>
   <time name="diis">   17.90   17.91</time>
   <time name="orth">    0.18    0.18</time>
   <time name="total">   26.88   26.91</time>
   <energy>
    <i name="e_fr_energy">    -43.27097360 </i>
    <i name="e_wo_entrp">    -43.27114884 </i>
    <i name="e_0_energy">    -43.27101741 </i>
   </energy>
  </scstep>
  <scstep>
   <time name="diag">    5.63    5.63</time>
   <time name="diis">   18.27   18.29</time>
   <time name="orth">    0.17    0.17</time>
   <time name="total">   27.24   27.27</time>
   <energy>
    <i name="e_fr_energy">    -43.25108372 </i>
    <i name="e_wo_entrp">    -43.25066292 </i>
    <i name="e_0_energy">    -43.25097852 </i>
   </energy>
  </scstep>
  <scstep>
   <time name="diag">    5.56    5.56</time>
   <time name="diis">   17.58   17.59</time>
   <time name="orth">    0.17    0.17</time>
   <time name="total">   26.45   26.48</time>
   <energy>
    <i name="e_fr_energy">    -43.25632761 </i>
    <i name="e_wo_entrp">    -43.25618818 </i>
    <i name="e_0_energy">    -43.25629275 </i>
   </energy>
  </scstep>
  <scstep>
   <time name="diag">    5.62    5.63</time>
   <time name="diis">   18.46   18.47</time>
   <time name="orth">    0.17    0.17</time>
   <time name="total">   27.37   27.40</time>
   <energy>
    <i name="e_fr_energy">    -43.26500092 </i>
    <i name="e_wo_entrp">    -43.26440463 </i>
    <i name="e_0_energy">    -43.26485185 </i>
   </energy>
  </scstep>
  <scstep>
   <time name="diag">    5.55    5.56</time>
   <time name="diis">   20.22   20.24</time>
   <time name="orth">    0.17    0.17</time>
   <time name="total">   29.10   29.13</time>
   <energy>
    <i name="e_fr_energy">    -43.24178237 </i>
    <i name="e_wo_entrp">    -43.24243449 </i>
    <i name="e_0_energy">    -43.24194540 </i>
   </energy>
  </scstep>
  <scstep>
   <time name="diag">    5.62    5.63</time>
   <time name="diis">   20.67   20.70</time>
   <time name="orth">    0.17    0.17</time>
   <time name="total">   29.63   29.66</time>
   <energy>
    <i name="e_fr_energy">    -43.24167562 </i>
    <i name="e_wo_entrp">    -43.24299236 </i>
    <i name="e_0_energy">    -43.24200480 </i>
   </energy>
  </scstep>
  <scstep>
   <time name="diag">    5.63    5.64</time>
   <time name="diis">   21.17   21.19</time>
   <time name="orth">    0.17    0.17</time>
   <time name="total">   30.14   30.17</time>
   <energy>
    <i name="e_fr_energy">    -43.24513580 </i>
    <i name="e_wo_entrp">    -43.24602503 </i>
    <i name="e_0_energy">    -43.24535810 </i>
   </energy>
  </scstep>
  <scstep>
   <time name="diag">    5.80    5.81</time>
   <time name="diis">   21.82   21.84</time>
   <time name="orth">    0.17    0.17</time>
   <time name="total">   30.96   30.99</time>
   <energy>
    <i name="e_fr_energy">    -43.24473725 </i>
    <i name="e_wo_entrp">    -43.24549536 </i>
    <i name="e_0_energy">    -43.24492678 </i>
   </energy>
  </scstep>
  <scstep>
   <time name="diag">    5.61    5.62</time>
   <time name="diis">   17.73   17.75</time>
   <time name="orth">    0.18    0.17</time>
   <time name="total">   26.78   26.81</time>
   <energy>
    <i name="e_fr_energy">    -43.23799369 </i>
    <i name="e_wo_entrp">    -43.23880360 </i>
    <i name="e_0_energy">    -43.23819617 </i>
   </energy>
  </scstep>
  <scstep>
   <time name="diag">    5.70    5.71</time>
   <time name="diis">   19.68   19.70</time>
   <time name="orth">    0.18    0.17</time>
   <time name="total">   28.73   28.76</time>
   <energy>
    <i name="e_fr_energy">    -43.24024381 </i>
    <i name="e_wo_entrp">    -43.23983901 </i>
    <i name="e_0_energy">    -43.24014261 </i>
   </energy>
  </scstep>
  <scstep>
   <time name="diag">    5.61    5.62</time>
   <time name="diis">   18.01   18.03</time>
   <time name="orth">    0.17    0.17</time>
   <time name="total">   27.02   27.05</time>
   <energy>
    <i name="e_fr_energy">    -43.25251908 </i>
    <i name="e_wo_entrp">    -43.25143984 </i>
    <i name="e_0_energy">    -43.25224927 </i>
   </energy>
  </scstep>
  <scstep>
   <time name="diag">    5.74    5.74</time>
   <time name="diis">   20.50   20.53</time>
   <time name="orth">    0.17    0.17</time>
   <time name="total">   29.56   29.59</time>
   <energy>
    <i name="e_fr_energy">    -43.25878078 </i>
    <i name="e_wo_entrp">    -43.25763795 </i>
    <i name="e_0_energy">    -43.25849507 </i>
   </energy>
  </scstep>
  <scstep>
   <time name="diag">    5.57    5.57</time>
   <time name="diis">   18.52   18.55</time>
   <time name="orth">    0.17    0.17</time>
   <time name="total">   27.39   27.45</time>
   <energy>
    <i name="e_fr_energy">    -43.26203455 </i>
    <i name="e_wo_entrp">    -43.25980617 </i>
    <i name="e_0_energy">    -43.26147746 </i>
   </energy>
  </scstep>
  <scstep>
   <time name="diag">    5.73    5.74</time>
   <time name="diis">   18.80   18.83</time>
   <time name="orth">    0.18    0.17</time>
   <time name="total">   27.91   27.97</time>
   <energy>
    <i name="e_fr_energy">    -43.26146335 </i>
    <i name="e_wo_entrp">    -43.25808771 </i>
    <i name="e_0_energy">    -43.26061944 </i>
   </energy>
  </scstep>
  <scstep>
   <time name="diag">    5.62    5.62</time>
   <time name="diis">   22.68   22.70</time>
   <time name="orth">    0.17    0.17</time>
   <time name="total">   31.61   31.64</time>
   <energy>
    <i name="e_fr_energy">    -43.26041959 </i>
    <i name="e_wo_entrp">    -43.25674614 </i>
    <i name="e_0_energy">    -43.25950122 </i>
   </energy>
  </scstep>
  <scstep>
   <time name="diag">    5.72    5.73</time>
   <time name="diis">   17.93   17.95</time>
   <time name="orth">    0.18    0.18</time>
   <time name="total">   27.05   27.31</time>
   <energy>
    <i name="e_fr_energy">    -43.26427960 </i>
    <i name="e_wo_entrp">    -43.26137727 </i>
    <i name="e_0_energy">    -43.26355402 </i>
   </energy>
  </scstep>
  <scstep>
   <time name="diag">    5.66    5.66</time>
   <time name="diis">   21.21   21.23</time>
   <time name="orth">    0.17    0.17</time>
   <time name="total">   30.18   30.21</time>
   <energy>
    <i name="e_fr_energy">    -43.27330652 </i>
    <i name="e_wo_entrp">    -43.27059449 </i>
    <i name="e_0_energy">    -43.27262851 </i>
   </energy>
  </scstep>
  <scstep>
   <time name="diag">    5.66    5.67</time>
   <time name="diis">   21.98   22.01</time>
   <time name="orth">    0.17    0.17</time>
   <time name="total">   31.04   31.07</time>
   <energy>
    <i name="e_fr_energy">    -43.27696494 </i>
    <i name="e_wo_entrp">    -43.27425206 </i>
    <i name="e_0_energy">    -43.27628672 </i>
   </energy>
  </scstep>
  <scstep>
   <time name="diag">    5.58    5.59</time>
   <time name="diis">   17.50   17.53</time>
   <time name="orth">    0.17    0.17</time>
   <time name="total">   26.40   26.43</time>
   <energy>
    <i name="e_fr_energy">    -43.27795424 </i>
    <i name="e_wo_entrp">    -43.27524132 </i>
    <i name="e_0_energy">    -43.27727601 </i>
   </energy>
  </scstep>
  <scstep>
   <time name="diag">    5.57    5.58</time>
   <time name="diis">   17.91   17.93</time>
   <time name="orth">    0.17    0.17</time>
   <time name="total">   26.84   26.87</time>
   <energy>
    <i name="e_fr_energy">    -43.26848749 </i>
    <i name="e_wo_entrp">    -43.26635788 </i>
    <i name="e_0_energy">    -43.26795509 </i>
   </energy>
  </scstep>
  <scstep>
   <time name="diag">    5.75    5.75</time>
   <time name="diis">   19.99   20.01</time>
   <time name="orth">    0.18    0.18</time>
   <time name="total">   29.11   29.14</time>
   <energy>
    <i name="e_fr_energy">    -43.25691977 </i>
    <i name="e_wo_entrp">    -43.25599658 </i>
    <i name="e_0_energy">    -43.25668898 </i>
   </energy>
  </scstep>
  <scstep>
   <time name="diag">    5.56    5.57</time>
   <time name="diis">   19.42   19.45</time>
   <time name="orth">    0.17    0.17</time>
   <time name="total">   28.30   28.33</time>
   <energy>
    <i name="e_fr_energy">    -43.22405358 </i>
    <i name="e_wo_entrp">    -43.22495381 </i>
    <i name="e_0_energy">    -43.22427864 </i>
   </energy>
  </scstep>
  <scstep>
   <time name="diag">    5.70    5.71</time>
   <time name="diis">   22.04   22.06</time>
   <time name="orth">    0.17    0.17</time>
   <time name="total">   31.13   31.18</time>
   <energy>
    <i name="e_fr_energy">    -43.21788450 </i>
    <i name="e_wo_entrp">    -43.21940706 </i>
    <i name="e_0_energy">    -43.21826514 </i>
   </energy>
  </scstep>
  <scstep>
   <time name="diag">    5.68    5.68</time>
   <time name="diis">   22.30   22.33</time>
   <time name="orth">    0.17    0.17</time>
   <time name="total">   31.34   31.38</time>
   <energy>
    <i name="e_fr_energy">    -43.21864439 </i>
    <i name="e_wo_entrp">    -43.22030048 </i>
    <i name="e_0_energy">    -43.21905841 </i>
   </energy>
  </scstep>
  <scstep>
   <time name="diag">    5.56    5.57</time>
   <time name="diis">   21.19   21.22</time>
   <time name="orth">    0.17    0.17</time>
   <time name="total">   30.11   30.14</time>
   <energy>
    <i name="e_fr_energy">    -43.21867366 </i>
    <i name="e_wo_entrp">    -43.22035852 </i>
    <i name="e_0_energy">    -43.21909487 </i>
   </energy>
  </scstep>
  <scstep>
   <time name="diag">    5.71    5.72</time>
   <time name="diis">   19.71   19.73</time>
   <time name="orth">    0.17    0.17</time>
   <time name="total">   28.82   28.85</time>
   <energy>
    <i name="e_fr_energy">    -43.21760553 </i>
    <i name="e_wo_entrp">    -43.21935055 </i>
    <i name="e_0_energy">    -43.21804178 </i>
   </energy>
  </scstep>
  <scstep>
   <time name="diag">    5.56    5.57</time>
   <time name="diis">   19.28   19.30</time>
   <time name="orth">    0.17    0.17</time>
   <time name="total">   28.17   28.20</time>
   <energy>
    <i name="e_fr_energy">    -43.21633963 </i>
    <i name="e_wo_entrp">    -43.21813139 </i>
    <i name="e_0_energy">    -43.21678757 </i>
   </energy>
  </scstep>
  <scstep>
   <time name="diag">    5.67    5.68</time>
   <time name="diis">   19.32   19.34</time>
   <time name="orth">    0.17    0.17</time>
   <time name="total">   28.31   28.37</time>
   <energy>
    <i name="e_fr_energy">    -43.21468777 </i>
    <i name="e_wo_entrp">    -43.21637459 </i>
    <i name="e_0_energy">    -43.21510948 </i>
   </energy>
  </scstep>
  <scstep>
   <time name="diag">    5.63    5.64</time>
   <time name="diis">   19.92   19.95</time>
   <time name="orth">    0.17    0.17</time>
   <time name="total">   28.90   28.94</time>
   <energy>
    <i name="e_fr_energy">    -43.21163781 </i>
    <i name="e_wo_entrp">    -43.21330625 </i>
    <i name="e_0_energy">    -43.21205492 </i>
   </energy>
  </scstep>
  <scstep>
   <time name="diag">    5.65    5.66</time>
   <time name="diis">   19.71   19.73</time>
   <time name="orth">    0.17    0.17</time>
   <time name="total">   28.71   28.77</time>
   <energy>
    <i name="e_fr_energy">    -43.21932462 </i>
    <i name="e_wo_entrp">    -43.22202237 </i>
    <i name="e_0_energy">    -43.21999906 </i>
   </energy>
  </scstep>
  <scstep>
   <time name="diag">    5.60    5.61</time>
   <time name="diis">   22.36   22.39</time>
   <time name="orth">    0.17    0.17</time>
   <time name="total">   31.31   31.34</time>
   <energy>
    <i name="e_fr_energy">    -43.22526581 </i>
    <i name="e_wo_entrp">    -43.22758666 </i>
    <i name="e_0_energy">    -43.22584602 </i>
   </energy>
  </scstep>
  <scstep>
   <time name="diag">    5.58    5.59</time>
   <time name="diis">   18.00   18.02</time>
   <time name="orth">    0.17    0.17</time>
   <time name="total">   26.93   26.99</time>
   <energy>
    <i name="e_fr_energy">    -43.22739880 </i>
    <i name="e_wo_entrp">    -43.22934025 </i>
    <i name="e_0_energy">    -43.22788416 </i>
   </energy>
  </scstep>
  <scstep>
   <time name="diag">    5.72    5.72</time>
   <time name="diis">   20.26   20.28</time>
   <time name="orth">    0.17    0.17</time>
   <time name="total">   29.32   29.36</time>
   <energy>
    <i name="e_fr_energy">    -43.23254761 </i>
    <i name="e_wo_entrp">    -43.23448414 </i>
    <i name="e_0_energy">    -43.23303174 </i>
   </energy>
  </scstep>
  <scstep>
   <time name="diag">    5.56    5.57</time>
   <time name="diis">   17.99   18.01</time>
   <time name="orth">    0.17    0.17</time>
   <time name="total">   26.88   26.91</time>
   <energy>
    <i name="e_fr_energy">    -43.24589555 </i>
    <i name="e_wo_entrp">    -43.24739372 </i>
    <i name="e_0_energy">    -43.24627010 </i>
   </energy>
  </scstep>
  <scstep>
   <time name="diag">    5.75    5.76</time>
   <time name="diis">   18.90   18.93</time>
   <time name="orth">    0.17    0.17</time>
   <time name="total">   28.06   28.10</time>
   <energy>
    <i name="e_fr_energy">    -43.25460622 </i>
    <i name="e_wo_entrp">    -43.25598342 </i>
    <i name="e_0_energy">    -43.25495052 </i>
   </energy>
  </scstep>
  <scstep>
   <time name="diag">    5.63    5.63</time>
   <time name="diis">   21.01   21.03</time>
   <time name="orth">    0.17    0.17</time>
   <time name="total">   29.97   30.00</time>
   <energy>
    <i name="e_fr_energy">    -43.25697636 </i>
    <i name="e_wo_entrp">    -43.25815970 </i>
    <i name="e_0_energy">    -43.25727220 </i>
   </energy>
  </scstep>
  <scstep>
   <time name="diag">    5.68    5.68</time>
   <time name="diis">   19.82   19.84</time>
   <time name="orth">    0.17    0.17</time>
   <time name="total">   28.90   28.93</time>
   <energy>
    <i name="e_fr_energy">    -43.25729563 </i>
    <i name="e_wo_entrp">    -43.25832990 </i>
[...]
   <time name="total">   15.57   15.58</time>
   <energy>
    <i name="alphaZ">    180.65182707 </i>
    <i name="ewald">   6300.52003986 </i>
    <i name="hartreedc"> -10003.34153721 </i>
    <i name="XCdc">     19.62324153 </i>
    <i name="pawpsdc">   3887.10786092 </i>
    <i name="pawaedc">  -3937.30674129 </i>
    <i name="eentropy">     -0.00001677 </i>
    <i name="bandstr">    -56.77752163 </i>
    <i name="atom">   3565.76896863 </i>
    <i name="e_fr_energy">    -43.75387889 </i>
    <i name="e_wo_entrp">    -43.75386212 </i>
    <i name="e_0_energy">    -43.75387470 </i>
   </energy>
  </scstep>
  <structure>
   <crystal>
    <varray name="basis" >
     <v>       1.41000000       2.44200000       0.00000000 </v>
     <v>      -1.41000000       2.44200000       0.00000000 </v>
     <v>       0.00000000       0.00000000      20.00000000 </v>
    </varray>
    <i name="volume">    137.72880000 </i>
    <varray name="rec_basis" >
     <v>       0.35460993       0.20475020       0.00000000 </v>
     <v>      -0.35460993       0.20475020       0.00000000 </v>
     <v>       0.00000000       0.00000000       0.05000000 </v>
    </varray>
   </crystal>
   <varray name="positions" >
    <v>       0.00000000       0.00000000       0.00000000 </v>
    <v>       0.40828033       0.40828033       0.09970206 </v>
    <v>       0.71880135       0.71880135       0.18993350 </v>
    <v>       0.22152375       0.22152375       0.28770612 </v>
    <v>       0.70013834       0.70013834       0.38768945 </v>
    <v>      -0.03673081      -0.03673081       0.47305558 </v>
   </varray>
  </structure>
  <varray name="forces" >
   <v>       0.00000000      -0.11549448       0.70058502 </v>
   <v>       0.00000000       0.19132576      -0.14756126 </v>
   <v>       0.00000000      -0.17721549      -0.37871747 </v>
   <v>       0.00000000       0.09532260       0.02037853 </v>
   <v>       0.00000000      -0.56512080       0.05897014 </v>
   <v>       0.00000000       0.57118241      -0.25365496 </v>
  </varray>
  <varray name="stress" >
   <v>    -181.45606349       0.00000000       0.00000000 </v>
   <v>       0.00000000    -199.37228667      14.67818128 </v>
   <v>       0.00000000      14.67818132     -44.44033628 </v>
  </varray>
  <energy>
   <i name="e_fr_energy">    -43.75387889 </i>
   <i name="e_wo_entrp">    -43.75387470 </i>
   <i name="e_0_energy">     -0.00001677 </i>
  </energy>
  <time name="totalsc"> 1114.30 1119.27</time>
 </calculation>
 <calculation>
  <scstep>
   <time name="dav">   20.79   21.14</time>
   <time name="total">   23.92   24.36</time>
   <energy>
    <i name="alphaZ">    180.65182707 </i>
    <i name="ewald">   6449.39722989 </i>
    <i name="hartreedc"> -10151.64955282 </i>
    <i name="XCdc">     19.77246055 </i>
    <i name="pawpsdc">   3887.10925538 </i>
    <i name="pawaedc">  -3937.30791194 </i>
    <i name="eentropy">     -0.00138363 </i>
    <i name="bandstr">    -57.46231967 </i>
    <i name="atom">   3565.76896863 </i>
    <i name="e_fr_energy">    -43.72142654 </i>
    <i name="e_wo_entrp">    -43.72004291 </i>
    <i name="e_0_energy">    -43.72108063 </i>
   </energy>
  </scstep>
  <scstep>
   <time name="diag">    5.71    5.72</time>
   <time name="diis">   17.89   17.91</time>
   <time name="orth">    0.18    0.17</time>
   <time name="total">   27.00   27.02</time>
   <energy>
    <i name="e_fr_energy">    -49.87226243 </i>
    <i name="e_wo_entrp">    -49.87366029 </i>
    <i name="e_0_energy">    -49.87261190 </i>
   </energy>
  </scstep>
  <scstep>
   <time name="diag">    5.64    5.64</time>
   <time name="diis">   17.36   17.38</time>
   <time name="orth">    0.17    0.17</time>
   <time name="total">   26.31   26.33</time>
   <energy>
    <i name="e_fr_energy">    -45.20399125 </i>
    <i name="e_wo_entrp">    -45.20446665 </i>
    <i name="e_0_energy">    -45.20411010 </i>
   </energy>
  </scstep>
  <scstep>
   <time name="diag">    5.55    5.55</time>
   <time name="diis">   17.31   17.32</time>
   <time name="orth">    0.17    0.17</time>
   <time name="total">   26.14   26.17</time>
   <energy>
    <i name="e_fr_energy">    -43.79255217 </i>
    <i name="e_wo_entrp">    -43.79431655 </i>
    <i name="e_0_energy">    -43.79299326 </i>
   </energy>
  </scstep>
  <scstep>
   <time name="diag">    5.58    5.59</time>
   <time name="diis">   20.06   20.08</time>
   <time name="orth">    0.17    0.17</time>
   <time name="total">   29.02   29.08</time>
   <energy>
    <i name="e_fr_energy">    -43.99062596 </i>
    <i name="e_wo_entrp">    -43.99140995 </i>
    <i name="e_0_energy">    -43.99082196 </i>
   </energy>
  </scstep>
  <scstep>
   <time name="diag">    5.61    5.61</time>
   <time name="diis">   17.54   17.56</time>
   <time name="orth">    0.17    0.17</time>
   <time name="total">   26.45   26.48</time>
   <energy>
    <i name="e_fr_energy">    -43.81998356 </i>
    <i name="e_wo_entrp">    -43.82123972 </i>
    <i name="e_0_energy">    -43.82029760 </i>
   </energy>
  </scstep>
  <scstep>
   <time name="diag">    5.56    5.56</time>
   <time name="diis">   19.14   19.16</time>
   <time name="orth">    0.18    0.17</time>
   <time name="total">   28.09   28.12</time>
   <energy>
    <i name="e_fr_energy">    -43.84183922 </i>
    <i name="e_wo_entrp">    -43.84199136 </i>
    <i name="e_0_energy">    -43.84187725 </i>
   </energy>
  </scstep>
  <scstep>
   <time name="diag">    5.76    5.77</time>
   <time name="diis">   18.38   18.39</time>
   <time name="orth">    0.17    0.17</time>
   <time name="total">   27.50   27.53</time>
   <energy>
    <i name="e_fr_energy">    -43.82629431 </i>
    <i name="e_wo_entrp">    -43.82710038 </i>
    <i name="e_0_energy">    -43.82649583 </i>
   </energy>
  </scstep>
  <scstep>
   <time name="diag">    5.55    5.56</time>
   <time name="diis">   18.11   18.13</time>
   <time name="orth">    0.17    0.17</time>
   <time name="total">   26.96   26.99</time>
   <energy>
    <i name="e_fr_energy">    -43.82376261 </i>
    <i name="e_wo_entrp">    -43.82396481 </i>
    <i name="e_0_energy">    -43.82381316 </i>
   </energy>
  </scstep>
  <scstep>
   <time name="diag">    5.71    5.71</time>
   <time name="diis">   21.96   21.98</time>
   <time name="orth">    0.17    0.17</time>
   <time name="total">   30.97   31.00</time>
   <energy>
    <i name="e_fr_energy">    -43.82307388 </i>
    <i name="e_wo_entrp">    -43.82319984 </i>
    <i name="e_0_energy">    -43.82310537 </i>
   </energy>
  </scstep>
  <scstep>
   <time name="diag">    5.58    5.59</time>
   <time name="diis">   17.60   17.61</time>
   <time name="orth">    0.17    0.17</time>
   <time name="total">   26.58   26.61</time>
   <energy>
    <i name="e_fr_energy">    -43.82263477 </i>
    <i name="e_wo_entrp">    -43.82271246 </i>
    <i name="e_0_energy">    -43.82265420 </i>
   </energy>
  </scstep>
  <scstep>
   <time name="diag">    5.68    5.69</time>
   <time name="diis">   17.94   17.96</time>
   <time name="orth">    0.18    0.18</time>
   <time name="total">   27.05   27.08</time>
   <energy>
    <i name="e_fr_energy">    -43.81805197 </i>
    <i name="e_wo_entrp">    -43.81787644 </i>
    <i name="e_0_energy">    -43.81800809 </i>
   </energy>
  </scstep>
  <scstep>
   <time name="diag">    5.73    5.74</time>
   <time name="diis">   20.10   20.12</time>
   <time name="orth">    0.17    0.17</time>
   <time name="total">   29.15   29.18</time>
   <energy>
    <i name="e_fr_energy">    -43.81230217 </i>
    <i name="e_wo_entrp">    -43.81319155 </i>
    <i name="e_0_energy">    -43.81252451 </i>
   </energy>
  </scstep>
  <scstep>
   <time name="diag">    5.59    5.59</time>
   <time name="diis">   18.34   18.36</time>
   <time name="orth">    0.17    0.17</time>
   <time name="total">   27.24   27.29</time>
   <energy>
    <i name="e_fr_energy">    -43.81697090 </i>
    <i name="e_wo_entrp">    -43.81905598 </i>
    <i name="e_0_energy">    -43.81749217 </i>
   </energy>
  </scstep>
  <scstep>
   <time name="diag">    5.60    5.61</time>
   <time name="diis">   21.70   21.73</time>
   <time name="orth">    0.17    0.17</time>
   <time name="total">   30.70   30.73</time>
   <energy>
    <i name="e_fr_energy">    -43.81751699 </i>
    <i name="e_wo_entrp">    -43.81956949 </i>
    <i name="e_0_energy">    -43.81803011 </i>
   </energy>
  </scstep>
  <scstep>
   <time name="diag">    5.58    5.59</time>
   <time name="diis">   17.44   17.46</time>
   <time name="orth">    0.17    0.17</time>
   <time name="total">   26.31   26.33</time>
   <energy>
    <i name="e_fr_energy">    -43.81347592 </i>
    <i name="e_wo_entrp">    -43.81522287 </i>
    <i name="e_0_energy">    -43.81391266 </i>
   </energy>
  </scstep>
  <scstep>
   <time name="diag">    5.61    5.62</time>
   <time name="diis">   18.55   18.57</time>
   <time name="orth">    0.17    0.17</time>
   <time name="total">   27.54   27.57</time>
   <energy>
    <i name="e_fr_energy">    -43.80568986 </i>
    <i name="e_wo_entrp">    -43.80704676 </i>
    <i name="e_0_energy">    -43.80602909 </i>
   </energy>
  </scstep>
  <scstep>
   <time name="diag">    5.69    5.70</time>
   <time name="diis">   18.36   18.38</time>
   <time name="orth">    0.17    0.17</time>
   <time name="total">   27.38   28.03</time>
   <energy>
    <i name="e_fr_energy">    -43.81230090 </i>
    <i name="e_wo_entrp">    -43.81346908 </i>
    <i name="e_0_energy">    -43.81259295 </i>
   </energy>
  </scstep>
  <scstep>
   <time name="diag">    5.56    5.56</time>
   <time name="diis">   21.25   21.27</time>
   <time name="orth">    0.17    0.17</time>
   <time name="total">   30.14   30.22</time>
   <energy>
    <i name="e_fr_energy">    -43.81378628 </i>
    <i name="e_wo_entrp">    -43.81501422 </i>
    <i name="e_0_energy">    -43.81409326 </i>
   </energy>
  </scstep>
  <scstep>
   <time name="diag">    5.69    5.70</time>
   <time name="diis">   17.65   17.67</time>
   <time name="orth">    0.17    0.17</time>
   <time name="total">   26.70   26.73</time>
   <energy>
    <i name="e_fr_energy">    -43.81237549 </i>
    <i name="e_wo_entrp">    -43.81342184 </i>
    <i name="e_0_energy">    -43.81263707 </i>
   </energy>
  </scstep>
  <scstep>
   <time name="diag">    5.58    5.58</time>
   <time name="diis">   18.40   18.42</time>
   <time name="orth">    0.17    0.17</time>
   <time name="total">   27.28   27.34</time>
   <energy>
    <i name="e_fr_energy">    -43.81192151 </i>
    <i name="e_wo_entrp">    -43.81253351 </i>
    <i name="e_0_energy">    -43.81207451 </i>
   </energy>
  </scstep>
  <scstep>
   <time name="diag">    5.59    5.60</time>
   <time name="diis">   19.83   19.85</time>
   <time name="orth">    0.17    0.17</time>
   <time name="total">   28.78   28.81</time>
   <energy>
    <i name="e_fr_energy">    -43.81279514 </i>
    <i name="e_wo_entrp">    -43.81311060 </i>
    <i name="e_0_energy">    -43.81287401 </i>
   </energy>
  </scstep>
  <scstep>
   <time name="diag">    5.65    5.66</time>
   <time name="diis">   21.31   21.33</time>
   <time name="orth">    0.17    0.17</time>
   <time name="total">   30.27   30.30</time>
   <energy>
    <i name="e_fr_energy">    -43.81407201 </i>
    <i name="e_wo_entrp">    -43.81446639 </i>
    <i name="e_0_energy">    -43.81417061 </i>
   </energy>
  </scstep>
  <scstep>
   <time name="diag">    5.60    5.60</time>
   <time name="diis">   16.64   16.66</time>
   <time name="orth">    0.17    0.17</time>
   <time name="total">   25.56   25.59</time>
   <energy>
    <i name="e_fr_energy">    -43.81421143 </i>
    <i name="e_wo_entrp">    -43.81452939 </i>
    <i name="e_0_energy">    -43.81429092 </i>
   </energy>
  </scstep>
  <scstep>
   <time name="diag">    5.73    5.74</time>
   <time name="diis">   17.48   17.50</time>
   <time name="orth">    0.18    0.17</time>
   <time name="total">   26.58   26.61</time>
   <energy>
    <i name="e_fr_energy">    -43.81464175 </i>
    <i name="e_wo_entrp">    -43.81477704 </i>
    <i name="e_0_energy">    -43.81467557 </i>
   </energy>
  </scstep>
  <scstep>
   <time name="diag">    5.60    5.60</time>
   <time name="diis">   18.34   18.36</time>
   <time name="orth">    0.17    0.17</time>
   <time name="total">   27.25   27.28</time>
   <energy>
    <i name="e_fr_energy">    -43.81480573 </i>
    <i name="e_wo_entrp">    -43.81466663 </i>
    <i name="e_0_energy">    -43.81477096 </i>
   </energy>
  </scstep>
  <scstep>
   <time name="diag">    5.57    5.58</time>
   <time name="diis">   18.24   18.26</time>
   <time name="orth">    0.17    0.17</time>
   <time name="total">   27.15   27.22</time>
   <energy>
    <i name="e_fr_energy">    -43.81573309 </i>
    <i name="e_wo_entrp">    -43.81555484 </i>
    <i name="e_0_energy">    -43.81568852 </i>
   </energy>
  </scstep>
  <scstep>
   <time name="diag">    5.68    5.69</time>
   <time name="diis">   19.46   19.48</time>
   <time name="orth">    0.17    0.17</time>
   <time name="total">   28.50   28.53</time>
   <energy>
    <i name="e_fr_energy">    -43.81668920 </i>
    <i name="e_wo_entrp">    -43.81648108 </i>
    <i name="e_0_energy">    -43.81663717 </i>
   </energy>
  </scstep>
  <scstep>
   <time name="diag">    5.55    5.55</time>
   <time name="diis">   21.10   21.13</time>
   <time name="orth">    0.17    0.17</time>
   <time name="total">   29.97   30.01</time>
   <energy>
    <i name="e_fr_energy">    -43.81746870 </i>
    <i name="e_wo_entrp">    -43.81725883 </i>
    <i name="e_0_energy">    -43.81741624 </i>
   </energy>
  </scstep>
  <scstep>
   <time name="diag">    5.67    5.68</time>
   <time name="diis">   16.26   16.28</time>
   <time name="orth">    0.17    0.17</time>
   <time name="total">   25.30   25.32</time>
   <energy>
    <i name="e_fr_energy">    -43.81786361 </i>
    <i name="e_wo_entrp">    -43.81767949 </i>
    <i name="e_0_energy">    -43.81781758 </i>
   </energy>
  </scstep>
  <scstep>
   <time name="diag">    5.62    5.62</time>
   <time name="diis">   13.49   13.50</time>
   <time name="orth">    0.17    0.17</time>
   <time name="total">   22.49   22.51</time>
   <energy>
    <i name="e_fr_energy">    -43.81794005 </i>
    <i name="e_wo_entrp">    -43.81777529 </i>
    <i name="e_0_energy">    -43.81789886 </i>
   </energy>
  </scstep>
  <scstep>
   <time name="diag">    5.59    5.60</time>
   <time name="diis">   11.74   11.75</time>
   <time name="orth">    0.17    0.17</time>
   <time name="total">   20.74   20.76</time>
   <energy>
    <i name="e_fr_energy">    -43.81800373 </i>
    <i name="e_wo_entrp">    -43.81782853 </i>
    <i name="e_0_energy">    -43.81795993 </i>
   </energy>
  </scstep>
  <scstep>
   <time name="diag">    5.56    5.56</time>
   <time name="diis">   11.19   11.20</time>
   <time name="orth">    0.17    0.17</time>
   <time name="total">   20.13   20.15</time>
   <energy>
    <i name="e_fr_energy">    -43.81802158 </i>
    <i name="e_wo_entrp">    -43.81783251 </i>
    <i name="e_0_energy">    -43.81797431 </i>
   </energy>
  </scstep>
  <scstep>
   <time name="diag">    5.56    5.57</time>
   <time name="diis">   11.24   11.25</time>
   <time name="orth">    0.17    0.17</time>
   <time name="total">   20.20   20.22</time>
   <energy>
    <i name="e_fr_energy">    -43.81805010 </i>
    <i name="e_wo_entrp">    -43.81787673 </i>
    <i name="e_0_energy">    -43.81800676 </i>
   </energy>
  </scstep>
  <scstep>
   <time name="diag">    5.56    5.57</time>
   <time name="diis">   10.86   10.87</time>
   <time name="orth">    0.18    0.17</time>
   <time name="total">   16.92   16.94</time>
   <energy>
    <i name="alphaZ">    180.65182707 </i>
    <i name="ewald">   6449.39722989 </i>
    <i name="hartreedc"> -10151.67647164 </i>
    <i name="XCdc">     19.71721195 </i>
    <i name="pawpsdc">   3903.08447533 </i>
    <i name="pawaedc">  -3953.37971359 </i>
    <i name="eentropy">     -0.00018067 </i>
    <i name="bandstr">    -57.38139777 </i>
    <i name="atom">   3565.76896863 </i>
    <i name="e_fr_energy">    -43.81805080 </i>
    <i name="e_wo_entrp">    -43.81787012 </i>
    <i name="e_0_energy">    -43.81800563 </i>
   </energy>
  </scstep>
  <structure>
   <crystal>
    <varray name="basis" >
     <v>       1.41000000       2.44200000       0.00000000 </v>
     <v>      -1.41000000       2.44200000       0.00000000 </v>
     <v>       0.00000000       0.00000000      20.00000000 </v>
    </varray>
    <i name="volume">    137.72880000 </i>
    <varray name="rec_basis" >
     <v>       0.35460993       0.20475020       0.00000000 </v>
     <v>      -0.35460993       0.20475020       0.00000000 </v>
     <v>       0.00000000       0.00000000       0.05000000 </v>
    </varray>
   </crystal>
   <varray name="positions" >
    <v>       0.00000000       0.00000000       0.00000000 </v>
    <v>       0.40828033       0.40828033       0.09970206 </v>
    <v>       0.70234848       0.70234848       0.18824327 </v>
    <v>       0.22289962       0.22289962       0.28589178 </v>
    <v>       0.69292022       0.69292022       0.38629982 </v>
    <v>      -0.02927959      -0.02927959       0.46979879 </v>
   </varray>
  </structure>
  <varray name="forces" >
   <v>       0.00000000      -0.11219823       0.68410708 </v>
   <v>       0.00000000      -0.01418311      -0.35928150 </v>
   <v>       0.00000000       0.01367449      -0.10828574 </v>
   <v>       0.00000000       0.06988418       0.03436787 </v>
   <v>       0.00000000      -0.40721409      -0.14271873 </v>
   <v>       0.00000000       0.45003676      -0.10818899 </v>
  </varray>
  <varray name="stress" >
   <v>    -181.41635938       0.00000000       0.00000000 </v>
   <v>       0.00000000    -193.51217994      17.47207270 </v>
   <v>       0.00000000      17.47207274     -37.71759721 </v>
  </varray>
  <energy>
   <i name="e_fr_energy">    -43.81805080 </i>
   <i name="e_wo_entrp">    -43.81800563 </i>
   <i name="e_0_energy">     -0.00018067 </i>
  </energy>
  <time name="totalsc">  942.71  949.94</time>
 </calculation>
 <calculation>
  <scstep>
   <time name="dav">   20.82   21.10</time>
   <time name="total">   24.02   24.34</time>
   <energy>
    <i name="alphaZ">    180.65182707 </i>
    <i name="ewald">   6576.34825259 </i>
    <i name="hartreedc"> -10277.91537951 </i>
    <i name="XCdc">     19.84201482 </i>
    <i name="pawpsdc">   3903.08337244 </i>
    <i name="pawaedc">  -3953.37793228 </i>
    <i name="eentropy">     -0.00084790 </i>
    <i name="bandstr">    -58.17240404 </i>
    <i name="atom">   3565.76896863 </i>
    <i name="e_fr_energy">    -43.77212817 </i>
    <i name="e_wo_entrp">    -43.77128027 </i>
    <i name="e_0_energy">    -43.77191619 </i>
   </energy>
  </scstep>
  <scstep>
   <time name="diag">    5.58    5.58</time>
   <time name="diis">   17.98   18.00</time>
   <time name="orth">    0.17    0.17</time>
   <time name="total">   26.84   26.87</time>
   <energy>
    <i name="e_fr_energy">    -48.84213609 </i>
    <i name="e_wo_entrp">    -48.84245978 </i>
    <i name="e_0_energy">    -48.84221702 </i>
   </energy>
  </scstep>
  <scstep>
   <time name="diag">    5.60    5.60</time>
   <time name="diis">   17.31   17.33</time>
   <time name="orth">    0.17    0.17</time>
   <time name="total">   26.25   26.28</time>
   <energy>
    <i name="e_fr_energy">    -44.91501093 </i>
    <i name="e_wo_entrp">    -44.91554009 </i>
    <i name="e_0_energy">    -44.91514322 </i>
   </energy>
  </scstep>
  <scstep>
   <time name="diag">    5.70    5.71</time>
   <time name="diis">   17.20   17.21</time>
   <time name="orth">    0.17    0.17</time>
   <time name="total">   26.28   26.30</time>
   <energy>
    <i name="e_fr_energy">    -43.81459521 </i>
    <i name="e_wo_entrp">    -43.81578018 </i>
    <i name="e_0_energy">    -43.81489145 </i>
   </energy>
  </scstep>
  <scstep>
   <time name="diag">    5.55    5.56</time>
   <time name="diis">   21.58   21.60</time>
   <time name="orth">    0.17    0.17</time>
