<?xml version="1.0" encoding="ISO-8859-1"?>
<modeling>
 <generator>
  <i name="program" type="string">vasp </i>
  <i name="version" type="string">5.3.3  </i>
  <i name="subversion" type="string">18Dez12 (build Sep  7 2015 22:32:56) complex                          parallel </i>
  <i name="platform" type="string">LinuxIFC </i>
  <i name="date" type="string">2002 01 04 </i>
  <i name="time" type="string">00:20:18 </i>
 </generator>
 <incar>
  <i type="string" name="SYSTEM"> Crystal</i>
  <i type="int" name="ISTART">     0</i>
  <i type="string" name="PREC">normal</i>
  <i type="string" name="ALGO"> fast</i>
  <i type="int" name="NSIM">     4</i>
  <i type="int" name="ISPIN">     2</i>
  <i type="int" name="ICHARG">     2</i>
  <i type="int" name="NELMDL">   -10</i>
  <i type="int" name="NELMIN">     4</i>
  <i type="int" name="IBRION">     2</i>
  <i name="EDIFF">      0.00010000</i>
  <i name="EDIFFG">     -0.01000000</i>
  <i type="int" name="NSW">   100</i>
  <i type="int" name="ISIF">     3</i>
  <i name="ENCUT">    350.00000000</i>
  <i type="logical" name="LREAL"> F  </i>
  <i type="int" name="ISMEAR">     2</i>
  <i name="SIGMA">      0.10000000</i>
  <i type="logical" name="LWAVE"> F  </i>
  <i type="logical" name="LCHARG"> F  </i>
 </incar>
 <kpoints>
  <generation param="Gamma">
   <v type="int" name="divisions">       5        5        5 </v>
   <v name="usershift">      0.00000000       0.00000000       0.00000000 </v>
   <v name="genvec1">      0.20000000       0.00000000       0.00000000 </v>
   <v name="genvec2">      0.00000000       0.20000000       0.00000000 </v>
   <v name="genvec3">      0.00000000       0.00000000       0.20000000 </v>
   <v name="shift">      0.00000000       0.00000000       0.00000000 </v>
  </generation>
  <varray name="kpointlist" >
   <v>       0.00000000       0.00000000       0.00000000 </v>
   <v>       0.20000000       0.00000000       0.00000000 </v>
   <v>       0.40000000       0.00000000       0.00000000 </v>
   <v>       0.20000000       0.20000000       0.00000000 </v>
   <v>       0.40000000       0.20000000       0.00000000 </v>
   <v>       0.40000000       0.40000000       0.00000000 </v>
   <v>       0.20000000       0.20000000       0.20000000 </v>
   <v>       0.40000000       0.20000000       0.20000000 </v>
   <v>       0.40000000       0.40000000       0.20000000 </v>
   <v>       0.40000000       0.40000000       0.40000000 </v>
  </varray>
  <varray name="weights" >
   <v>       0.00800000 </v>
   <v>       0.04800000 </v>
   <v>       0.04800000 </v>
   <v>       0.09600000 </v>
   <v>       0.19200000 </v>
   <v>       0.09600000 </v>
   <v>       0.06400000 </v>
   <v>       0.19200000 </v>
   <v>       0.19200000 </v>
   <v>       0.06400000 </v>
  </varray>
 </kpoints>
 <parameters>
  <separator name="general" >
   <i type="string" name="SYSTEM">Crystal</i>
   <i type="logical" name="LCOMPAT"> F  </i>
  </separator>
  <separator name="electronic" >
   <i type="string" name="PREC">normal</i>
   <i name="ENMAX">    350.00000000</i>
   <i name="ENAUG">    511.36800000</i>
   <i name="EDIFF">      0.00010000</i>
   <i type="int" name="IALGO">    68</i>
   <i type="int" name="IWAVPR">    11</i>
   <i type="int" name="NBANDS">    13</i>
   <i name="NELECT">     16.00000000</i>
   <i type="int" name="TURBO">     0</i>
   <i type="int" name="IRESTART">     0</i>
   <i type="int" name="NREBOOT">     0</i>
   <i type="int" name="NMIN">     0</i>
   <i name="EREF">      0.00000000</i>
   <separator name="electronic smearing" >
    <i type="int" name="ISMEAR">     2</i>
    <i name="SIGMA">      0.10000000</i>
    <i name="KSPACING">      0.50000000</i>
    <i type="logical" name="KGAMMA"> T  </i>
   </separator>
   <separator name="electronic projectors" >
    <i type="logical" name="LREAL"> F  </i>
    <v name="ROPT">      0.00000000</v>
    <i type="int" name="LMAXPAW">  -100</i>
    <i type="int" name="LMAXMIX">     2</i>
    <i type="logical" name="NLSPLINE"> F  </i>
   </separator>
   <separator name="electronic startup" >
    <i type="int" name="ISTART">     0</i>
    <i type="int" name="ICHARG">     2</i>
    <i type="int" name="INIWAV">     1</i>
   </separator>
   <separator name="electronic spin" >
    <i type="int" name="ISPIN">     2</i>
    <i type="logical" name="LNONCOLLINEAR"> F  </i>
    <v name="MAGMOM">      1.00000000      1.00000000</v>
    <i name="NUPDOWN">     -1.00000000</i>
    <i type="logical" name="LSORBIT"> F  </i>
    <v name="SAXIS">      0.00000000      0.00000000      1.00000000</v>
    <i type="logical" name="LSPIRAL"> F  </i>
    <v name="QSPIRAL">      0.00000000      0.00000000      0.00000000</v>
    <i type="logical" name="LZEROZ"> F  </i>
   </separator>
   <separator name="electronic exchange-correlation" >
    <i type="logical" name="LASPH"> F  </i>
    <i type="logical" name="LMETAGGA"> F  </i>
   </separator>
   <separator name="electronic convergence" >
    <i type="int" name="NELM">    60</i>
    <i type="int" name="NELMDL">   -10</i>
    <i type="int" name="NELMIN">     4</i>
    <i name="ENINI">    350.00000000</i>
    <separator name="electronic convergence detail" >
     <i type="logical" name="LDIAG"> T  </i>
     <i type="logical" name="LSUBROT"> T  </i>
     <i name="WEIMIN">      0.00100000</i>
     <i name="EBREAK">      0.00000192</i>
     <i name="DEPER">      0.30000000</i>
     <i type="int" name="NRMM">     4</i>
     <i name="TIME">      0.40000000</i>
    </separator>
   </separator>
   <separator name="electronic mixer" >
    <i name="AMIX">      0.40000000</i>
    <i name="BMIX">      1.00000000</i>
    <i name="AMIN">      0.10000000</i>
    <i name="AMIX_MAG">      1.60000000</i>
    <i name="BMIX_MAG">      1.00000000</i>
    <separator name="electronic mixer details" >
     <i type="int" name="IMIX">     4</i>
     <i type="int" name="MAXMIX">   -45</i>
     <i name="WC">    100.00000000</i>
     <i type="int" name="INIMIX">     1</i>
     <i type="int" name="MIXPRE">     1</i>
     <i type="int" name="MREMOVE">     5</i>
    </separator>
   </separator>
   <separator name="electronic dipolcorrection" >
    <i type="logical" name="LDIPOL"> F  </i>
    <i type="logical" name="LMONO"> F  </i>
    <i type="int" name="IDIPOL">     0</i>
    <i name="EPSILON">      1.00000000</i>
    <v name="DIPOL">   -100.00000000   -100.00000000   -100.00000000</v>
    <i name="EFIELD">      0.00000000</i>
   </separator>
  </separator>
  <separator name="grids" >
   <i type="int" name="NGX">    12</i>
   <i type="int" name="NGY">    12</i>
   <i type="int" name="NGZ">    12</i>
   <i type="int" name="NGXF">    24</i>
   <i type="int" name="NGYF">    24</i>
   <i type="int" name="NGZF">    24</i>
   <i type="logical" name="ADDGRID"> F  </i>
  </separator>
  <separator name="ionic" >
   <i type="int" name="NSW">   100</i>
   <i type="int" name="IBRION">     2</i>
   <i type="int" name="ISIF">     3</i>
   <i name="PSTRESS">      0.00000000</i>
   <i name="EDIFFG">     -0.01000000</i>
   <i type="int" name="NFREE">     1</i>
   <i name="POTIM">      0.50000000</i>
   <i name="SMASS">     -3.00000000</i>
   <i name="SCALEE">      1.00000000</i>
  </separator>
  <separator name="ionic md" >
   <i name="TEBEG">      0.00010000</i>
   <i name="TEEND">      0.00010000</i>
   <i type="int" name="NBLOCK">     1</i>
   <i type="int" name="KBLOCK">   100</i>
   <i type="int" name="NPACO">   256</i>
   <i name="APACO">     16.00000000</i>
  </separator>
  <separator name="symmetry" >
   <i type="int" name="ISYM">     2</i>
   <i name="SYMPREC">      0.00001000</i>
  </separator>
  <separator name="dos" >
   <i type="logical" name="LORBIT"> F  </i>
   <v name="RWIGS">     -1.00000000</v>
   <i type="int" name="NEDOS">   301</i>
   <i name="EMIN">     10.00000000</i>
   <i name="EMAX">    -10.00000000</i>
   <i name="EFERMI">      0.00000000</i>
  </separator>
  <separator name="writing" >
   <i type="int" name="NWRITE">     2</i>
   <i type="logical" name="LWAVE"> F  </i>
   <i type="logical" name="LCHARG"> F  </i>
   <i type="logical" name="LPARD"> F  </i>
   <i type="logical" name="LVTOT"> F  </i>
   <i type="logical" name="LVHAR"> F  </i>
   <i type="logical" name="LELF"> F  </i>
   <i type="logical" name="LOPTICS"> F  </i>
   <v name="STM">      0.00000000      0.00000000      0.00000000      0.00000000      0.00000000      0.00000000      0.00000000</v>
  </separator>
  <separator name="performance" >
   <i type="int" name="NPAR">     1</i>
   <i type="int" name="NSIM">     4</i>
   <i type="int" name="NBLK">    -1</i>
   <i type="logical" name="LPLANE"> T  </i>
   <i type="logical" name="LSCALAPACK"> F  </i>
   <i type="logical" name="LSCAAWARE"> F  </i>
   <i type="logical" name="LSCALU"> F  </i>
   <i type="logical" name="LASYNC"> F  </i>
   <i type="logical" name="LORBITALREAL"> F  </i>
  </separator>
  <separator name="miscellaneous" >
   <i type="int" name="IDIOT">     3</i>
   <i type="logical" name="LMUSIC"> F  </i>
   <v name="POMASS">     55.84700000</v>
   <v name="DARWINR">      0.00000000</v>
   <v name="DARWINV">      1.00000000</v>
   <i type="logical" name="LCORR"> T  </i>
  </separator>
  <i type="logical" name="GGA_COMPAT"> T  </i>
  <i type="logical" name="LBERRY"> F  </i>
  <i type="int" name="ICORELEVEL">     0</i>
  <i type="logical" name="LDAU"> F  </i>
  <i type="int" name="I_CONSTRAINED_M">     0</i>
  <separator name="electronic exchange-correlation" >
   <i type="string" name="GGA">--</i>
   <i type="int" name="VOSKOWN">     0</i>
   <i type="logical" name="LHFCALC"> F  </i>
   <i type="string" name="PRECFOCK"></i>
   <i type="logical" name="LSYMGRAD"> F  </i>
   <i type="logical" name="LHFONE"> F  </i>
   <i type="logical" name="LRHFCALC"> F  </i>
   <i type="logical" name="LTHOMAS"> F  </i>
   <i type="logical" name="LMODELHF"> F  </i>
   <i name="ENCUT4O">     -1.00000000</i>
   <i type="int" name="EXXOEP">     0</i>
   <i type="int" name="FOURORBIT">     0</i>
   <i name="AEXX">      0.00000000</i>
   <i name="HFALPHA">      0.00000000</i>
   <i name="MCALPHA">      0.00000000</i>
   <i name="ALDAX">      1.00000000</i>
   <i name="AGGAX">      1.00000000</i>
   <i name="ALDAC">      1.00000000</i>
   <i name="AGGAC">      1.00000000</i>
   <i type="int" name="NKREDX">     1</i>
   <i type="int" name="NKREDY">     1</i>
   <i type="int" name="NKREDZ">     1</i>
   <i type="logical" name="SHIFTRED"> F  </i>
   <i type="logical" name="ODDONLY"> F  </i>
   <i type="logical" name="EVENONLY"> F  </i>
   <i type="int" name="LMAXFOCK">     0</i>
   <i type="int" name="NMAXFOCKAE">     0</i>
   <i type="logical" name="LFOCKAEDFT"> F  </i>
   <i name="HFSCREEN">      0.00000000</i>
   <i name="HFSCREENC">      0.00000000</i>
   <i type="int" name="NBANDSGWLOW">     0</i>
  </separator>
  <separator name="vdW DFT" >
   <i type="logical" name="LUSE_VDW"> F  </i>
   <i name="Zab_VDW">     -0.84910000</i>
   <i name="PARAM1">      0.12340000</i>
   <i name="PARAM2">      1.00000000</i>
   <i name="PARAM3">      0.00000000</i>
  </separator>
  <separator name="model GW" >
   <i type="int" name="MODEL_GW">     0</i>
   <i name="MODEL_EPS0">      5.27280000</i>
   <i name="MODEL_ALPHA">      1.00000000</i>
  </separator>
  <separator name="linear response parameters" >
   <i type="logical" name="LEPSILON"> F  </i>
   <i type="logical" name="LRPA"> F  </i>
   <i type="logical" name="LNABLA"> F  </i>
   <i type="logical" name="LVEL"> F  </i>
   <i type="int" name="KINTER">     0</i>
   <i name="CSHIFT">      0.10000000</i>
   <i name="OMEGAMAX">     -1.00000000</i>
   <i name="DEG_THRESHOLD">      0.00200000</i>
  </separator>
  <separator name="orbital magnetization" >
   <i type="logical" name="NUCIND"> F  </i>
   <v name="MAGPOS">      0.00000000      0.00000000      0.00000000</v>
   <i type="logical" name="LNICSALL"> T  </i>
   <i type="logical" name="ORBITALMAG"> F  </i>
   <i type="logical" name="LMAGBLOCH"> F  </i>
   <i type="logical" name="LCHIMAG"> F  </i>
   <i type="logical" name="LGAUGE"> T  </i>
   <i type="int" name="MAGATOM">     0</i>
   <v name="MAGDIPOL">      0.00000000      0.00000000      0.00000000</v>
   <v name="AVECCONST">      0.00000000      0.00000000      0.00000000</v>
  </separator>
  <separator name="response functions" >
   <i type="logical" name="LADDER"> F  </i>
   <i type="logical" name="LFXC"> F  </i>
   <i type="logical" name="LHARTREE"> T  </i>
   <i type="int" name="IBSE">     0</i>
   <i type="logical" name="LTCTE"> F  </i>
   <i type="logical" name="LTETE"> F  </i>
   <i type="logical" name="LTRIPLET"> F  </i>
   <i type="logical" name="LFXCEPS"> F  </i>
   <i type="logical" name="L2ORDER"> F  </i>
   <i type="logical" name="LUSEW"> F  </i>
   <i name="ENCUTGW">     -2.00000000</i>
   <i name="ENCUTGWSOFT">     -2.00000000</i>
   <i name="ENCUTLF">     -1.00000000</i>
   <i type="int" name="LMAXMP2">    -1</i>
   <i name="SCISSOR">      0.00000000</i>
   <i type="int" name="NOMEGA">     0</i>
   <i type="int" name="NOMEGAR">     0</i>
   <i type="int" name="NBANDSGW">    -1</i>
   <i type="int" name="NBANDSO">    -1</i>
   <i type="int" name="NBANDSV">    -1</i>
   <i type="int" name="NELM">     1</i>
   <i type="int" name="DIM">     3</i>
   <i type="int" name="ANTIRES">     0</i>
   <i name="OMEGAMAX">    -30.00000000</i>
   <i name="OMEGATL">   -200.00000000</i>
   <i type="int" name="OMEGAGRID">     0</i>
   <i name="CSHIFT">     -0.10000000</i>
   <i type="logical" name="SELFENERGY"> F  </i>
   <i type="logical" name="LSPECTRAL"> F  </i>
   <i type="logical" name="ODDONLYGW"> F  </i>
   <i type="logical" name="EVENONLYGW"> F  </i>
   <i type="int" name="NKREDLFX">     1</i>
   <i type="int" name="NKREDLFY">     1</i>
   <i type="int" name="NKREDLFZ">     1</i>
   <i type="int" name="MAXMEM">  1800</i>
   <i type="int" name="TELESCOPE">     0</i>
  </separator>
 </parameters>
 <atominfo>
  <atoms>       2 </atoms>
  <types>       1 </types>
  <array name="atoms" >
   <dimension dim="1">ion</dimension>
   <field type="string">element</field>
   <field type="int">atomtype</field>
   <set>
    <rc><c>Fe</c><c>   1</c></rc>
    <rc><c>Fe</c><c>   1</c></rc>
   </set>
  </array>
  <array name="atomtypes" >
   <dimension dim="1">type</dimension>
   <field type="int">atomspertype</field>
   <field type="string">element</field>
   <field>mass</field>
   <field>valence</field>
   <field type="string">pseudopotential</field>
   <set>
    <rc><c>   2</c><c>Fe</c><c>     55.84700000</c><c>      8.00000000</c><c>  PAW_PBE Fe 06Sep2000                  </c></rc>
   </set>
  </array>
 </atominfo>
 <structure name="initialpos" >
  <crystal>
   <varray name="basis" >
    <v>       2.60000000       0.00000000       0.00000000 </v>
    <v>       0.00000000       2.60000000       0.00000000 </v>
    <v>       0.00000000       0.00000000       2.60000000 </v>
   </varray>
   <i name="volume">     17.57600000 </i>
   <varray name="rec_basis" >
    <v>       0.38461538       0.00000000       0.00000000 </v>
    <v>       0.00000000       0.38461538       0.00000000 </v>
    <v>       0.00000000       0.00000000       0.38461538 </v>
   </varray>
  </crystal>
  <varray name="positions" >
   <v>       0.00000000       0.00000000       0.00000000 </v>
   <v>       0.50000000       0.50000000       0.50000000 </v>
  </varray>
 </structure>
 <calculation>
  <scstep>
   <time name="dav">    0.12    0.11</time>
   <time name="total">    0.15    0.15</time>
   <energy>
    <i name="alphaZ">    157.29125171 </i>
    <i name="ewald">  -1289.94922872 </i>
    <i name="hartreedc">   -184.93499033 </i>
    <i name="XCdc">      9.73512575 </i>
    <i name="pawpsdc">   1109.45345578 </i>
    <i name="pawaedc">  -1124.86183816 </i>
    <i name="eentropy">     -0.00060276 </i>
    <i name="bandstr">    196.83394020 </i>
    <i name="atom">   1188.58965621 </i>
    <i name="e_fr_energy">     62.15676969 </i>
    <i name="e_wo_entrp">     62.15737245 </i>
    <i name="e_0_energy">     62.15692038 </i>
   </energy>
  </scstep>
  <scstep>
   <time name="dav">    0.10    0.10</time>
   <time name="total">    0.10    0.10</time>
   <energy>
    <i name="e_fr_energy">    -15.82730653 </i>
    <i name="e_wo_entrp">    -15.82741524 </i>
    <i name="e_0_energy">    -15.82733371 </i>
   </energy>
  </scstep>
  <scstep>
   <time name="dav">    0.11    0.11</time>
   <time name="total">    0.11    0.11</time>
   <energy>
    <i name="e_fr_energy">    -17.36452064 </i>
    <i name="e_wo_entrp">    -17.36182880 </i>
    <i name="e_0_energy">    -17.36384768 </i>
   </energy>
  </scstep>
  <scstep>
   <time name="dav">    0.12    0.11</time>
   <time name="total">    0.12    0.11</time>
   <energy>
    <i name="e_fr_energy">    -17.37384283 </i>
    <i name="e_wo_entrp">    -17.37113357 </i>
    <i name="e_0_energy">    -17.37316551 </i>
   </energy>
  </scstep>
  <scstep>
   <time name="dav">    0.10    0.10</time>
   <time name="total">    0.10    0.11</time>
   <energy>
    <i name="e_fr_energy">    -17.37396649 </i>
    <i name="e_wo_entrp">    -17.37125723 </i>
    <i name="e_0_energy">    -17.37328918 </i>
   </energy>
  </scstep>
  <scstep>
   <time name="dav">    0.08    0.08</time>
   <time name="total">    0.08    0.08</time>
   <energy>
    <i name="e_fr_energy">    -17.37396876 </i>
    <i name="e_wo_entrp">    -17.37125949 </i>
    <i name="e_0_energy">    -17.37329144 </i>
   </energy>
  </scstep>
  <scstep>
   <time name="dav">    0.07    0.07</time>
   <time name="total">    0.07    0.07</time>
   <energy>
    <i name="e_fr_energy">    -17.37396912 </i>
    <i name="e_wo_entrp">    -17.37125985 </i>
    <i name="e_0_energy">    -17.37329180 </i>
   </energy>
  </scstep>
  <scstep>
   <time name="dav">    0.06    0.06</time>
   <time name="total">    0.06    0.06</time>
   <energy>
    <i name="e_fr_energy">    -17.37396922 </i>
    <i name="e_wo_entrp">    -17.37125996 </i>
    <i name="e_0_energy">    -17.37329190 </i>
   </energy>
  </scstep>
  <scstep>
   <time name="dav">    0.06    0.06</time>
   <time name="total">    0.06    0.06</time>
   <energy>
    <i name="e_fr_energy">    -17.37396925 </i>
    <i name="e_wo_entrp">    -17.37125999 </i>
    <i name="e_0_energy">    -17.37329194 </i>
   </energy>
  </scstep>
  <scstep>
   <time name="dav">    0.06    0.06</time>
   <time name="total">    0.08    0.08</time>
   <energy>
    <i name="e_fr_energy">    -17.37396926 </i>
    <i name="e_wo_entrp">    -17.37126000 </i>
    <i name="e_0_energy">    -17.37329195 </i>
   </energy>
  </scstep>
  <scstep>
   <time name="diag">    0.02    0.02</time>
   <time name="diis">    0.07    0.07</time>
   <time name="orth">    0.00    0.00</time>
   <time name="total">    0.14    0.14</time>
   <energy>
    <i name="e_fr_energy">    -15.12587961 </i>
    <i name="e_wo_entrp">    -15.12218900 </i>
    <i name="e_0_energy">    -15.12495696 </i>
   </energy>
  </scstep>
  <scstep>
   <time name="diag">    0.02    0.02</time>
   <time name="diis">    0.07    0.07</time>
   <time name="orth">    0.00    0.00</time>
   <time name="total">    0.14    0.14</time>
   <energy>
    <i name="e_fr_energy">    -15.20538042 </i>
    <i name="e_wo_entrp">    -15.20305175 </i>
    <i name="e_0_energy">    -15.20479825 </i>
   </energy>
  </scstep>
  <scstep>
   <time name="diag">    0.02    0.02</time>
   <time name="diis">    0.07    0.07</time>
   <time name="orth">    0.00    0.00</time>
   <time name="total">    0.14    0.14</time>
   <energy>
    <i name="e_fr_energy">    -15.31455690 </i>
    <i name="e_wo_entrp">    -15.31574671 </i>
    <i name="e_0_energy">    -15.31485436 </i>
   </energy>
  </scstep>
  <scstep>
   <time name="diag">    0.02    0.02</time>
   <time name="diis">    0.07    0.07</time>
   <time name="orth">    0.00    0.00</time>
   <time name="total">    0.14    0.14</time>
   <energy>
    <i name="e_fr_energy">    -15.29909259 </i>
    <i name="e_wo_entrp">    -15.30029184 </i>
    <i name="e_0_energy">    -15.29939240 </i>
   </energy>
  </scstep>
  <scstep>
   <time name="diag">    0.02    0.02</time>
   <time name="diis">    0.06    0.07</time>
   <time name="orth">    0.00    0.00</time>
   <time name="total">    0.14    0.14</time>
   <energy>
    <i name="e_fr_energy">    -15.31637859 </i>
    <i name="e_wo_entrp">    -15.31903222 </i>
    <i name="e_0_energy">    -15.31704200 </i>
   </energy>
  </scstep>
  <scstep>
   <time name="diag">    0.02    0.02</time>
   <time name="diis">    0.07    0.07</time>
   <time name="orth">    0.00    0.00</time>
   <time name="total">    0.14    0.14</time>
   <energy>
    <i name="e_fr_energy">    -15.23412258 </i>
    <i name="e_wo_entrp">    -15.23278619 </i>
    <i name="e_0_energy">    -15.23378848 </i>
   </energy>
  </scstep>
  <scstep>
   <time name="diag">    0.02    0.02</time>
   <time name="diis">    0.07    0.07</time>
   <time name="orth">    0.00    0.00</time>
   <time name="total">    0.14    0.15</time>
   <energy>
    <i name="e_fr_energy">    -15.29151248 </i>
    <i name="e_wo_entrp">    -15.29213309 </i>
    <i name="e_0_energy">    -15.29166763 </i>
   </energy>
  </scstep>
  <scstep>
   <time name="diag">    0.02    0.02</time>
   <time name="diis">    0.08    0.07</time>
   <time name="orth">    0.00    0.00</time>
   <time name="total">    0.14    0.15</time>
   <energy>
    <i name="e_fr_energy">    -15.32396011 </i>
    <i name="e_wo_entrp">    -15.32182990 </i>
    <i name="e_0_energy">    -15.32342755 </i>
   </energy>
  </scstep>
  <scstep>
   <time name="diag">    0.02    0.02</time>
   <time name="diis">    0.06    0.06</time>
   <time name="orth">    0.00    0.00</time>
   <time name="total">    0.13    0.13</time>
   <energy>
    <i name="e_fr_energy">    -15.32602341 </i>
    <i name="e_wo_entrp">    -15.32736178 </i>
    <i name="e_0_energy">    -15.32635800 </i>
   </energy>
  </scstep>
  <scstep>
   <time name="diag">    0.02    0.02</time>
   <time name="diis">    0.04    0.04</time>
   <time name="orth">    0.00    0.00</time>
   <time name="total">    0.11    0.11</time>
   <energy>
    <i name="e_fr_energy">    -15.32615826 </i>
    <i name="e_wo_entrp">    -15.32764021 </i>
    <i name="e_0_energy">    -15.32652874 </i>
   </energy>
  </scstep>
  <scstep>
   <time name="diag">    0.02    0.02</time>
   <time name="diis">    0.04    0.04</time>
   <time name="orth">    0.00    0.00</time>
   <time name="total">    0.10    0.10</time>
   <energy>
    <i name="alphaZ">    157.29125171 </i>
    <i name="ewald">  -1289.94922872 </i>
    <i name="hartreedc">   -152.59982752 </i>
    <i name="XCdc">      9.78943603 </i>
    <i name="pawpsdc">   1783.34080519 </i>
    <i name="pawaedc">  -1804.39355904 </i>
    <i name="eentropy">      0.00150747 </i>
    <i name="bandstr">     92.60370481 </i>
    <i name="atom">   1188.58965621 </i>
    <i name="e_fr_energy">    -15.32625385 </i>
    <i name="e_wo_entrp">    -15.32776132 </i>
    <i name="e_0_energy">    -15.32663072 </i>
   </energy>
  </scstep>
  <structure>
   <crystal>
    <varray name="basis" >
     <v>       2.60000000       0.00000000       0.00000000 </v>
     <v>       0.00000000       2.60000000       0.00000000 </v>
     <v>       0.00000000       0.00000000       2.60000000 </v>
    </varray>
    <i name="volume">     17.57600000 </i>
    <varray name="rec_basis" >
     <v>       0.38461538       0.00000000       0.00000000 </v>
     <v>       0.00000000       0.38461538       0.00000000 </v>
     <v>       0.00000000       0.00000000       0.38461538 </v>
    </varray>
   </crystal>
   <varray name="positions" >
    <v>       0.00000000       0.00000000       0.00000000 </v>
    <v>       0.50000000       0.50000000       0.50000000 </v>
   </varray>
  </structure>
  <varray name="forces" >
   <v>       0.00000000       0.00000000      -0.00000000 </v>
   <v>      -0.00000000      -0.00000000       0.00000000 </v>
  </varray>
  <varray name="stress" >
   <v>     974.01526802       0.00000000      -0.00000000 </v>
   <v>       0.00000000     974.01526802       0.00000000 </v>
   <v>       0.00000000       0.00000000     974.01526802 </v>
  </varray>
  <energy>
   <i name="e_fr_energy">    -15.32625385 </i>
   <i name="e_wo_entrp">    -15.32663072 </i>
   <i name="e_0_energy">      0.00150747 </i>
  </energy>
  <time name="totalsc">    2.68    2.68</time>
 </calculation>
 <calculation>
  <scstep>
   <time name="dav">    0.10    0.10</time>
   <time name="total">    0.14    0.15</time>
   <energy>
    <i name="alphaZ">     79.05607884 </i>
    <i name="ewald">  -1025.61142686 </i>
    <i name="hartreedc">   -121.32940219 </i>
    <i name="XCdc">     -1.28745489 </i>
    <i name="pawpsdc">   1783.04909543 </i>
    <i name="pawaedc">  -1804.10574255 </i>
    <i name="eentropy">     -0.00252035 </i>
    <i name="bandstr">   -180.42135386 </i>
    <i name="atom">   1188.58965621 </i>
    <i name="e_fr_energy">    -82.06307021 </i>
    <i name="e_wo_entrp">    -82.06054986 </i>
    <i name="e_0_energy">    -82.06244012 </i>
   </energy>
  </scstep>
  <scstep>
   <time name="diag">    0.02    0.02</time>
   <time name="diis">    0.07    0.07</time>
   <time name="orth">    0.00    0.00</time>
   <time name="total">    0.14    0.14</time>
   <energy>
    <i name="e_fr_energy">    -16.79803118 </i>
    <i name="e_wo_entrp">    -16.79529697 </i>
    <i name="e_0_energy">    -16.79734763 </i>
   </energy>
  </scstep>
  <scstep>
   <time name="diag">    0.02    0.02</time>
   <time name="diis">    0.07    0.07</time>
   <time name="orth">    0.00    0.00</time>
   <time name="total">    0.14    0.14</time>
   <energy>
    <i name="e_fr_energy">    -15.81033839 </i>
    <i name="e_wo_entrp">    -15.80583561 </i>
    <i name="e_0_energy">    -15.80921269 </i>
   </energy>
  </scstep>
  <scstep>
   <time name="diag">    0.02    0.02</time>
   <time name="diis">    0.07    0.07</time>
   <time name="orth">    0.00    0.00</time>
   <time name="total">    0.14    0.14</time>
   <energy>
    <i name="e_fr_energy">    -15.01117668 </i>
    <i name="e_wo_entrp">    -15.01026098 </i>
    <i name="e_0_energy">    -15.01094776 </i>
   </energy>
  </scstep>
  <scstep>
   <time name="diag">    0.02    0.02</time>
   <time name="diis">    0.07    0.07</time>
   <time name="orth">    0.00    0.00</time>
   <time name="total">    0.14    0.14</time>
   <energy>
    <i name="e_fr_energy">    -14.22735919 </i>
    <i name="e_wo_entrp">    -14.22877454 </i>
    <i name="e_0_energy">    -14.22771302 </i>
   </energy>
  </scstep>
  <scstep>
   <time name="diag">    0.02    0.02</time>
   <time name="diis">    0.07    0.07</time>
   <time name="orth">    0.00    0.00</time>
   <time name="total">    0.14    0.14</time>
   <energy>
    <i name="e_fr_energy">    -14.16959931 </i>
    <i name="e_wo_entrp">    -14.17085022 </i>
    <i name="e_0_energy">    -14.16991203 </i>
   </energy>
  </scstep>
  <scstep>
   <time name="diag">    0.02    0.02</time>
   <time name="diis">    0.07    0.07</time>
   <time name="orth">    0.00    0.00</time>
   <time name="total">    0.14    0.14</time>
   <energy>
    <i name="e_fr_energy">    -14.17414898 </i>
    <i name="e_wo_entrp">    -14.17622732 </i>
    <i name="e_0_energy">    -14.17466856 </i>
   </energy>
  </scstep>
  <scstep>
   <time name="diag">    0.02    0.02</time>
   <time name="diis">    0.07    0.07</time>
   <time name="orth">    0.00    0.00</time>
   <time name="total">    0.14    0.14</time>
   <energy>
    <i name="e_fr_energy">    -14.17390629 </i>
    <i name="e_wo_entrp">    -14.17601155 </i>
    <i name="e_0_energy">    -14.17443260 </i>
   </energy>
  </scstep>
  <scstep>
   <time name="diag">    0.02    0.02</time>
   <time name="diis">    0.05    0.05</time>
   <time name="orth">    0.00    0.00</time>
   <time name="total">    0.12    0.12</time>
   <energy>
    <i name="e_fr_energy">    -14.17407054 </i>
    <i name="e_wo_entrp">    -14.17603632 </i>
    <i name="e_0_energy">    -14.17456198 </i>
   </energy>
  </scstep>
  <scstep>
   <time name="diag">    0.02    0.02</time>
   <time name="diis">    0.04    0.04</time>
   <time name="orth">    0.00    0.00</time>
   <time name="total">    0.10    0.10</time>
   <energy>
    <i name="alphaZ">     79.05607884 </i>
    <i name="ewald">  -1025.61142686 </i>
    <i name="hartreedc">   -259.63469886 </i>
    <i name="XCdc">      7.88567827 </i>
    <i name="pawpsdc">   1177.34199269 </i>
    <i name="pawaedc">  -1192.35838848 </i>
    <i name="eentropy">      0.00200551 </i>
    <i name="bandstr">     10.55504615 </i>
    <i name="atom">   1188.58965621 </i>
    <i name="e_fr_energy">    -14.17405653 </i>
    <i name="e_wo_entrp">    -14.17606204 </i>
    <i name="e_0_energy">    -14.17455791 </i>
   </energy>
  </scstep>
  <structure>
   <crystal>
    <varray name="basis" >
     <v>       3.27011567       0.00000000      -0.00000000 </v>
     <v>       0.00000000       3.27011567       0.00000000 </v>
     <v>       0.00000000       0.00000000       3.27011567 </v>
    </varray>
    <i name="volume">     34.96949356 </i>
    <varray name="rec_basis" >
     <v>       0.30579958      -0.00000000      -0.00000000 </v>
     <v>      -0.00000000       0.30579958      -0.00000000 </v>
     <v>       0.00000000      -0.00000000       0.30579958 </v>
    </varray>
   </crystal>
   <varray name="positions" >
    <v>       0.00000000       0.00000000      -0.00000000 </v>
    <v>       0.50000000       0.50000000       0.50000000 </v>
   </varray>
  </structure>
  <varray name="forces" >
   <v>       0.00000000       0.00000000       0.00000000 </v>
   <v>      -0.00000000      -0.00000000      -0.00000000 </v>
  </varray>
  <varray name="stress" >
   <v>    -572.76179253      -0.00000000      -0.00000000 </v>
   <v>      -0.00000000    -572.76179253      -0.00000000 </v>
   <v>       0.00000000       0.00000000    -572.76179253 </v>
  </varray>
  <energy>
   <i name="e_fr_energy">    -14.17405653 </i>
   <i name="e_wo_entrp">    -14.17455791 </i>
   <i name="e_0_energy">      0.00200551 </i>
  </energy>
  <time name="totalsc">    1.53    1.53</time>
 </calculation>
 <calculation>
  <scstep>
   <time name="dav">    0.10    0.10</time>
   <time name="total">    0.15    0.15</time>
   <energy>
    <i name="alphaZ">    115.23005203 </i>
    <i name="ewald">  -1162.85709499 </i>
    <i name="hartreedc">   -294.35176848 </i>
    <i name="XCdc">     15.87449810 </i>
    <i name="pawpsdc">   1177.27713338 </i>
    <i name="pawaedc">  -1192.30341499 </i>
    <i name="eentropy">      0.00271144 </i>
    <i name="bandstr">    113.03905150 </i>
    <i name="atom">   1188.58965621 </i>
    <i name="e_fr_energy">    -39.49917580 </i>
    <i name="e_wo_entrp">    -39.50188724 </i>
    <i name="e_0_energy">    -39.49985366 </i>
   </energy>
  </scstep>
  <scstep>
   <time name="diag">    0.02    0.02</time>
   <time name="diis">    0.07    0.07</time>
   <time name="orth">    0.00    0.00</time>
   <time name="total">    0.14    0.14</time>
   <energy>
    <i name="e_fr_energy">    -16.93889458 </i>
    <i name="e_wo_entrp">    -16.93791735 </i>
    <i name="e_0_energy">    -16.93865027 </i>
   </energy>
  </scstep>
  <scstep>
   <time name="diag">    0.02    0.02</time>
   <time name="diis">    0.07    0.07</time>
   <time name="orth">    0.00    0.00</time>
   <time name="total">    0.14    0.14</time>
   <energy>
    <i name="e_fr_energy">    -16.71415442 </i>
    <i name="e_wo_entrp">    -16.71306780 </i>
    <i name="e_0_energy">    -16.71388276 </i>
   </energy>
  </scstep>
  <scstep>
   <time name="diag">    0.02    0.02</time>
   <time name="diis">    0.07    0.07</time>
   <time name="orth">    0.00    0.00</time>
   <time name="total">    0.14    0.14</time>
   <energy>
    <i name="e_fr_energy">    -16.57500840 </i>
    <i name="e_wo_entrp">    -16.57364826 </i>
    <i name="e_0_energy">    -16.57466837 </i>
   </energy>
  </scstep>
  <scstep>
   <time name="diag">    0.02    0.02</time>
   <time name="diis">    0.07    0.07</time>
   <time name="orth">    0.00    0.00</time>
   <time name="total">    0.14    0.14</time>
   <energy>
    <i name="e_fr_energy">    -16.44373240 </i>
    <i name="e_wo_entrp">    -16.44245189 </i>
    <i name="e_0_energy">    -16.44341228 </i>
   </energy>
  </scstep>
  <scstep>
   <time name="diag">    0.02    0.02</time>
   <time name="diis">    0.07    0.07</time>
   <time name="orth">    0.00    0.00</time>
   <time name="total">    0.14    0.14</time>
   <energy>
    <i name="e_fr_energy">    -16.44348091 </i>
    <i name="e_wo_entrp">    -16.44245681 </i>
    <i name="e_0_energy">    -16.44322489 </i>
   </energy>
  </scstep>
  <scstep>
   <time name="diag">    0.02    0.02</time>
   <time name="diis">    0.07    0.07</time>
   <time name="orth">    0.00    0.00</time>
   <time name="total">    0.14    0.14</time>
   <energy>
    <i name="e_fr_energy">    -16.44428471 </i>
    <i name="e_wo_entrp">    -16.44348079 </i>
    <i name="e_0_energy">    -16.44408373 </i>
   </energy>
  </scstep>
  <scstep>
   <time name="diag">    0.02    0.02</time>
   <time name="diis">    0.05    0.05</time>
   <time name="orth">    0.00    0.00</time>
   <time name="total">    0.12    0.12</time>
   <energy>
    <i name="e_fr_energy">    -16.44460014 </i>
    <i name="e_wo_entrp">    -16.44386829 </i>
    <i name="e_0_energy">    -16.44441718 </i>
   </energy>
  </scstep>
  <scstep>
   <time name="diag">    0.02    0.02</time>
   <time name="diis">    0.05    0.04</time>
   <time name="orth">    0.00    0.00</time>
   <time name="total">    0.10    0.10</time>
   <energy>
    <i name="alphaZ">    115.23005203 </i>
    <i name="ewald">  -1162.85709499 </i>
    <i name="hartreedc">   -198.04094217 </i>
    <i name="XCdc">      8.40805015 </i>
    <i name="pawpsdc">   1387.97856769 </i>
    <i name="pawaedc">  -1405.80690921 </i>
    <i name="eentropy">     -0.00073723 </i>
    <i name="bandstr">     50.05478357 </i>
    <i name="atom">   1188.58965621 </i>
    <i name="e_fr_energy">    -16.44457395 </i>
    <i name="e_wo_entrp">    -16.44383672 </i>
    <i name="e_0_energy">    -16.44438964 </i>
   </energy>
  </scstep>
  <structure>
   <crystal>
    <varray name="basis" >
     <v>       2.88416178       0.00000000      -0.00000000 </v>
     <v>       0.00000000       2.88416178       0.00000000 </v>
     <v>       0.00000000       0.00000000       2.88416178 </v>
    </varray>
    <i name="volume">     23.99158025 </i>
    <varray name="rec_basis" >
     <v>       0.34672119      -0.00000000      -0.00000000 </v>
     <v>      -0.00000000       0.34672119      -0.00000000 </v>
     <v>       0.00000000      -0.00000000       0.34672119 </v>
    </varray>
   </crystal>
   <varray name="positions" >
    <v>       0.00000000       0.00000000      -0.00000000 </v>
    <v>       0.50000000       0.50000000       0.50000000 </v>
   </varray>
  </structure>
  <varray name="forces" >
   <v>       0.00000000      -0.00000000       0.00000000 </v>
   <v>      -0.00000000       0.00000000      -0.00000000 </v>
  </varray>
  <varray name="stress" >
   <v>    -110.70574277      -0.00000000      -0.00000000 </v>
   <v>       0.00000000    -110.70574277      -0.00000000 </v>
   <v>       0.00000000       0.00000000    -110.70574277 </v>
  </varray>
  <energy>
   <i name="e_fr_energy">    -16.44457395 </i>
   <i name="e_wo_entrp">    -16.44438964 </i>
   <i name="e_0_energy">     -0.00073723 </i>
  </energy>
  <time name="totalsc">    1.44    1.43</time>
 </calculation>
 <calculation>
  <scstep>
   <time name="dav">    0.10    0.10</time>
   <time name="total">    0.14    0.15</time>
   <energy>
    <i name="alphaZ">    119.92829333 </i>
    <i name="ewald">  -1178.45131531 </i>
    <i name="hartreedc">   -200.68240931 </i>
    <i name="XCdc">      9.17985080 </i>
    <i name="pawpsdc">   1388.27053490 </i>
    <i name="pawaedc">  -1406.10242643 </i>
    <i name="eentropy">     -0.00187450 </i>
    <i name="bandstr">     62.51171963 </i>
    <i name="atom">   1188.58965621 </i>
    <i name="e_fr_energy">    -16.75797066 </i>
    <i name="e_wo_entrp">    -16.75609616 </i>
    <i name="e_0_energy">    -16.75750204 </i>
   </energy>
  </scstep>
  <scstep>
   <time name="diag">    0.02    0.02</time>
   <time name="diis">    0.07    0.07</time>
   <time name="orth">    0.00    0.00</time>
   <time name="total">    0.14    0.14</time>
   <energy>
    <i name="e_fr_energy">    -16.50873470 </i>
    <i name="e_wo_entrp">    -16.50655596 </i>
    <i name="e_0_energy">    -16.50819001 </i>
   </energy>
  </scstep>
  <scstep>
   <time name="diag">    0.02    0.02</time>
   <time name="diis">    0.07    0.07</time>
   <time name="orth">    0.00    0.00</time>
   <time name="total">    0.14    0.14</time>
   <energy>
    <i name="e_fr_energy">    -16.49966456 </i>
    <i name="e_wo_entrp">    -16.49926071 </i>
    <i name="e_0_energy">    -16.49956359 </i>
   </energy>
  </scstep>
  <scstep>
   <time name="diag">    0.02    0.02</time>
   <time name="diis">    0.07    0.07</time>
   <time name="orth">    0.00    0.00</time>
   <time name="total">    0.14    0.14</time>
   <energy>
    <i name="e_fr_energy">    -16.49655144 </i>
    <i name="e_wo_entrp">    -16.49620825 </i>
    <i name="e_0_energy">    -16.49646564 </i>
   </energy>
  </scstep>
  <scstep>
   <time name="diag">    0.02    0.02</time>
   <time name="diis">    0.07    0.07</time>
   <time name="orth">    0.00    0.00</time>
   <time name="total">    0.14    0.14</time>
   <energy>
    <i name="e_fr_energy">    -16.49440112 </i>
    <i name="e_wo_entrp">    -16.49388979 </i>
    <i name="e_0_energy">    -16.49427329 </i>
   </energy>
  </scstep>
  <scstep>
   <time name="diag">    0.02    0.02</time>
   <time name="diis">    0.04    0.04</time>
   <time name="orth">    0.00    0.00</time>
   <time name="total">    0.10    0.10</time>
   <energy>
    <i name="alphaZ">    119.92829333 </i>
    <i name="ewald">  -1178.45131531 </i>
    <i name="hartreedc">   -191.32436466 </i>
    <i name="XCdc">      8.40314297 </i>
    <i name="pawpsdc">   1418.74316341 </i>
    <i name="pawaedc">  -1436.86970737 </i>
    <i name="eentropy">     -0.00055860 </i>
    <i name="bandstr">     54.48725660 </i>
    <i name="atom">   1188.58965621 </i>
    <i name="e_fr_energy">    -16.49443344 </i>
    <i name="e_wo_entrp">    -16.49387484 </i>
    <i name="e_0_energy">    -16.49429379 </i>
   </energy>
  </scstep>
  <structure>
   <crystal>
    <varray name="basis" >
     <v>       2.84599622       0.00000000      -0.00000000 </v>
     <v>       0.00000000       2.84599622       0.00000000 </v>
     <v>       0.00000000       0.00000000       2.84599622 </v>
    </varray>
    <i name="volume">     23.05170001 </i>
    <varray name="rec_basis" >
     <v>       0.35137081      -0.00000000      -0.00000000 </v>
     <v>      -0.00000000       0.35137081      -0.00000000 </v>
     <v>       0.00000000      -0.00000000       0.35137081 </v>
    </varray>
   </crystal>
   <varray name="positions" >
    <v>       0.00000000       0.00000000      -0.00000000 </v>
    <v>       0.50000000       0.50000000       0.50000000 </v>
   </varray>
  </structure>
  <varray name="forces" >
   <v>       0.00000000      -0.00000000       0.00000000 </v>
   <v>      -0.00000000       0.00000000      -0.00000000 </v>
  </varray>
  <varray name="stress" >
   <v>     -53.38968915       0.00000000      -0.00000000 </v>
   <v>       0.00000000     -53.38968915       0.00000000 </v>
   <v>      -0.00000000       0.00000000     -53.38968915 </v>
  </varray>
  <energy>
   <i name="e_fr_energy">    -16.49443344 </i>
   <i name="e_wo_entrp">    -16.49429379 </i>
   <i name="e_0_energy">     -0.00055860 </i>
  </energy>
  <time name="totalsc">    1.02    1.03</time>
 </calculation>
 <calculation>
  <scstep>
   <time name="dav">    0.10    0.10</time>
   <time name="total">    0.15    0.15</time>
   <energy>
    <i name="alphaZ">    123.90057924 </i>
    <i name="ewald">  -1191.32120814 </i>
    <i name="hartreedc">   -193.43994497 </i>
    <i name="XCdc">      9.03550869 </i>
    <i name="pawpsdc">   1419.54496118 </i>
    <i name="pawaedc">  -1437.65315127 </i>
    <i name="eentropy">     -0.00133013 </i>
    <i name="bandstr">     64.68479151 </i>
    <i name="atom">   1188.58965621 </i>
    <i name="e_fr_energy">    -16.66013769 </i>
    <i name="e_wo_entrp">    -16.65880755 </i>
    <i name="e_0_energy">    -16.65980515 </i>
   </energy>
  </scstep>
  <scstep>
   <time name="diag">    0.02    0.02</time>
   <time name="diis">    0.07    0.07</time>
   <time name="orth">    0.00    0.00</time>
   <time name="total">    0.14    0.14</time>
   <energy>
    <i name="e_fr_energy">    -16.51223710 </i>
    <i name="e_wo_entrp">    -16.51184965 </i>
    <i name="e_0_energy">    -16.51214024 </i>
   </energy>
  </scstep>
  <scstep>
   <time name="diag">    0.02    0.02</time>
   <time name="diis">    0.07    0.07</time>
   <time name="orth">    0.00    0.00</time>
   <time name="total">    0.14    0.14</time>
   <energy>
    <i name="e_fr_energy">    -16.50711549 </i>
    <i name="e_wo_entrp">    -16.50627399 </i>
    <i name="e_0_energy">    -16.50690511 </i>
   </energy>
  </scstep>
  <scstep>
   <time name="diag">    0.02    0.02</time>
   <time name="diis">    0.07    0.07</time>
   <time name="orth">    0.00    0.00</time>
   <time name="total">    0.14    0.14</time>
   <energy>
    <i name="e_fr_energy">    -16.50540552 </i>
    <i name="e_wo_entrp">    -16.50451637 </i>
    <i name="e_0_energy">    -16.50518323 </i>
   </energy>
  </scstep>
  <scstep>
   <time name="diag">    0.02    0.02</time>
   <time name="diis">    0.07    0.07</time>
   <time name="orth">    0.00    0.00</time>
   <time name="total">    0.14    0.14</time>
   <energy>
    <i name="e_fr_energy">    -16.50423759 </i>
    <i name="e_wo_entrp">    -16.50350444 </i>
    <i name="e_0_energy">    -16.50405430 </i>
   </energy>
  </scstep>
  <scstep>
   <time name="diag">    0.02    0.02</time>
   <time name="diis">    0.04    0.04</time>
   <time name="orth">    0.00    0.00</time>
   <time name="total">    0.10    0.10</time>
   <energy>
    <i name="alphaZ">    123.90057924 </i>
    <i name="ewald">  -1191.32120814 </i>
    <i name="hartreedc">   -186.35230559 </i>
    <i name="XCdc">      8.48644670 </i>
    <i name="pawpsdc">   1448.25329564 </i>
    <i name="pawaedc">  -1466.58981710 </i>
    <i name="eentropy">     -0.00067017 </i>
    <i name="bandstr">     58.52977252 </i>
    <i name="atom">   1188.58965621 </i>
    <i name="e_fr_energy">    -16.50425070 </i>
    <i name="e_wo_entrp">    -16.50358052 </i>
    <i name="e_0_energy">    -16.50408315 </i>
   </energy>
  </scstep>
  <structure>
   <crystal>
    <varray name="basis" >
     <v>       2.81525081       0.00000000      -0.00000000 </v>
     <v>       0.00000000       2.81525081       0.00000000 </v>
     <v>       0.00000000       0.00000000       2.81525081 </v>
    </varray>
    <i name="volume">     22.31265630 </i>
    <varray name="rec_basis" >
     <v>       0.35520814      -0.00000000      -0.00000000 </v>
     <v>      -0.00000000       0.35520814      -0.00000000 </v>
     <v>       0.00000000      -0.00000000       0.35520814 </v>
    </varray>
   </crystal>
   <varray name="positions" >
    <v>       0.00000000       0.00000000      -0.00000000 </v>
    <v>       0.50000000       0.50000000       0.50000000 </v>
   </varray>
  </structure>
  <varray name="forces" >
   <v>       0.00000000      -0.00000000       0.00000000 </v>
   <v>      -0.00000000       0.00000000      -0.00000000 </v>
  </varray>
  <varray name="stress" >
   <v>       9.40893684      -0.00000000      -0.00000000 </v>
   <v>       0.00000000       9.40893684      -0.00000000 </v>
   <v>      -0.00000000       0.00000000       9.40893684 </v>
  </varray>
  <energy>
   <i name="e_fr_energy">    -16.50425070 </i>
   <i name="e_wo_entrp">    -16.50408315 </i>
   <i name="e_0_energy">     -0.00067017 </i>
  </energy>
  <time name="totalsc">    1.03    1.03</time>
 </calculation>
 <calculation>
  <scstep>
   <time name="dav">    0.10    0.10</time>
   <time name="total">    0.15    0.15</time>
   <energy>
    <i name="alphaZ">    123.31091212 </i>
    <i name="ewald">  -1189.42829172 </i>
    <i name="hartreedc">   -186.07035730 </i>
    <i name="XCdc">      8.39531512 </i>
    <i name="pawpsdc">   1448.99484598 </i>
    <i name="pawaedc">  -1467.30933864 </i>
    <i name="eentropy">     -0.00111541 </i>
    <i name="bandstr">     57.01037806 </i>
    <i name="atom">   1188.58965621 </i>
    <i name="e_fr_energy">    -16.50799559 </i>
    <i name="e_wo_entrp">    -16.50688018 </i>
    <i name="e_0_energy">    -16.50771674 </i>
   </energy>
  </scstep>
  <scstep>
   <time name="diag">    0.02    0.02</time>
   <time name="diis">    0.07    0.07</time>
   <time name="orth">    0.00    0.00</time>
   <time name="total">    0.14    0.14</time>
   <energy>
    <i name="e_fr_energy">    -16.50490019 </i>
    <i name="e_wo_entrp">    -16.50409992 </i>
    <i name="e_0_energy">    -16.50470012 </i>
   </energy>
  </scstep>
  <scstep>
   <time name="diag">    0.02    0.02</time>
   <time name="diis">    0.06    0.06</time>
   <time name="orth">    0.00    0.00</time>
   <time name="total">    0.13    0.13</time>
   <energy>
    <i name="e_fr_energy">    -16.50473098 </i>
    <i name="e_wo_entrp">    -16.50405148 </i>
    <i name="e_0_energy">    -16.50456110 </i>
   </energy>
  </scstep>
  <scstep>
   <time name="diag">    0.02    0.02</time>
   <time name="diis">    0.04    0.04</time>
   <time name="orth">    0.00    0.00</time>
   <time name="total">    0.10    0.10</time>
   <energy>
    <i name="alphaZ">    123.31091212 </i>
    <i name="ewald">  -1189.42829172 </i>
    <i name="hartreedc">   -187.03956482 </i>
    <i name="XCdc">      8.45506119 </i>
    <i name="pawpsdc">   1446.35348897 </i>
    <i name="pawaedc">  -1464.67957086 </i>
    <i name="eentropy">     -0.00066181 </i>
    <i name="bandstr">     57.93428670 </i>
    <i name="atom">   1188.58965621 </i>
    <i name="e_fr_energy">    -16.50468402 </i>
    <i name="e_wo_entrp">    -16.50402221 </i>
    <i name="e_0_energy">    -16.50451857 </i>
   </energy>
  </scstep>
  <structure>
   <crystal>
    <varray name="basis" >
     <v>       2.81973114       0.00000000      -0.00000000 </v>
     <v>       0.00000000       2.81973114       0.00000000 </v>
     <v>       0.00000000       0.00000000       2.81973114 </v>
    </varray>
    <i name="volume">     22.41935440 </i>
    <varray name="rec_basis" >
     <v>       0.35464374      -0.00000000      -0.00000000 </v>
     <v>      -0.00000000       0.35464374      -0.00000000 </v>
     <v>       0.00000000      -0.00000000       0.35464374 </v>
    </varray>
   </crystal>
   <varray name="positions" >
    <v>       0.00000000       0.00000000      -0.00000000 </v>
    <v>       0.50000000       0.50000000       0.50000000 </v>
   </varray>
  </structure>
  <varray name="forces" >
   <v>       0.00000000      -0.00000000       0.00000000 </v>
   <v>      -0.00000000       0.00000000      -0.00000000 </v>
  </varray>
  <varray name="stress" >
   <v>      -7.06914781      -0.00000000      -0.00000000 </v>
   <v>       0.00000000      -7.06914781      -0.00000000 </v>
   <v>       0.00000000       0.00000000      -7.06914781 </v>
  </varray>
  <energy>
   <i name="e_fr_energy">    -16.50468402 </i>
   <i name="e_wo_entrp">    -16.50451857 </i>
   <i name="e_0_energy">     -0.00066181 </i>
  </energy>
  <time name="totalsc">    0.74    0.73</time>
 </calculation>
 <calculation>
  <scstep>
   <time name="dav">    0.10    0.10</time>
   <time name="total">    0.14    0.15</time>
   <energy>
    <i name="alphaZ">    123.56411079 </i>
    <i name="ewald">  -1190.24183358 </i>
    <i name="hartreedc">   -187.21705895 </i>
    <i name="XCdc">      8.50032776 </i>
    <i name="pawpsdc">   1444.78546525 </i>
    <i name="pawaedc">  -1463.04224746 </i>
    <i name="eentropy">     -0.00095841 </i>
    <i name="bandstr">     58.55744566 </i>
    <i name="atom">   1188.58965621 </i>
    <i name="e_fr_energy">    -16.50509273 </i>
    <i name="e_wo_entrp">    -16.50413432 </i>
    <i name="e_0_energy">    -16.50485312 </i>
   </energy>
  </scstep>
  <scstep>
   <time name="diag">    0.02    0.02</time>
   <time name="diis">    0.07    0.07</time>
   <time name="orth">    0.00    0.00</time>
   <time name="total">    0.14    0.14</time>
   <energy>
    <i name="e_fr_energy">    -16.50459636 </i>
    <i name="e_wo_entrp">    -16.50395641 </i>
    <i name="e_0_energy">    -16.50443637 </i>
   </energy>
  </scstep>
  <scstep>
   <time name="diag">    0.02    0.02</time>
   <time name="diis">    0.04    0.04</time>
   <time name="orth">    0.00    0.00</time>
   <time name="total">    0.11    0.11</time>
   <energy>
    <i name="e_fr_energy">    -16.50458173 </i>
    <i name="e_wo_entrp">    -16.50390172 </i>
    <i name="e_0_energy">    -16.50441173 </i>
   </energy>
  </scstep>
  <scstep>
   <time name="diag">    0.02    0.02</time>
   <time name="diis">    0.04    0.04</time>
   <time name="orth">    0.00    0.00</time>
   <time name="total">    0.10    0.09</time>
   <energy>
    <i name="alphaZ">    123.56411079 </i>
    <i name="ewald">  -1190.24183358 </i>
    <i name="hartreedc">   -186.81699159 </i>
    <i name="XCdc">      8.47521624 </i>
    <i name="pawpsdc">   1445.87856729 </i>
    <i name="pawaedc">  -1464.12956809 </i>
    <i name="eentropy">     -0.00067921 </i>
    <i name="bandstr">     58.17694567 </i>
    <i name="atom">   1188.58965621 </i>
    <i name="e_fr_energy">    -16.50457626 </i>
    <i name="e_wo_entrp">    -16.50389706 </i>
    <i name="e_0_energy">    -16.50440646 </i>
   </energy>
  </scstep>
  <structure>
   <crystal>
    <varray name="basis" >
     <v>       2.81780383       0.00000000      -0.00000000 </v>
     <v>       0.00000000       2.81780383       0.00000000 </v>
     <v>       0.00000000       0.00000000       2.81780383 </v>
    </varray>
    <i name="volume">     22.37341427 </i>
    <varray name="rec_basis" >
     <v>       0.35488631      -0.00000000      -0.00000000 </v>
     <v>      -0.00000000       0.35488631      -0.00000000 </v>
     <v>       0.00000000      -0.00000000       0.35488631 </v>
    </varray>
   </crystal>
   <varray name="positions" >
    <v>       0.00000000       0.00000000      -0.00000000 </v>
    <v>       0.50000000       0.50000000       0.50000000 </v>
   </varray>
  </structure>
  <varray name="forces" >
   <v>      -0.00000000       0.00000000      -0.00000000 </v>
   <v>       0.00000000      -0.00000000       0.00000000 </v>
  </varray>
  <varray name="stress" >
   <v>       9.14310808      -0.00000000      -0.00000000 </v>
   <v>      -0.00000000       9.14310808      -0.00000000 </v>
   <v>       0.00000000      -0.00000000       9.14310808 </v>
  </varray>
  <energy>
   <i name="e_fr_energy">    -16.50457626 </i>
   <i name="e_wo_entrp">    -16.50440646 </i>
   <i name="e_0_energy">     -0.00067921 </i>
  </energy>
  <time name="totalsc">    0.71    0.71</time>
 </calculation>
 <calculation>
  <scstep>
   <time name="dav">    0.10    0.10</time>
   <time name="total">    0.15    0.15</time>
   <energy>
    <i name="alphaZ">    123.42135875 </i>
    <i name="ewald">  -1189.78329989 </i>
    <i name="hartreedc">   -186.72763228 </i>
    <i name="XCdc">      8.45102672 </i>
    <i name="pawpsdc">   1446.39682744 </i>
    <i name="pawaedc">  -1464.67688677 </i>
    <i name="eentropy">     -0.00053067 </i>
    <i name="bandstr">     57.82467541 </i>
    <i name="atom">   1188.58965621 </i>
    <i name="e_fr_energy">    -16.50480508 </i>
    <i name="e_wo_entrp">    -16.50427441 </i>
    <i name="e_0_energy">    -16.50467241 </i>
   </energy>
  </scstep>
  <scstep>
   <time name="diag">    0.02    0.02</time>
   <time name="diis">    0.06    0.06</time>
   <time name="orth">    0.00    0.00</time>
   <time name="total">    0.13    0.13</time>
   <energy>
    <i name="e_fr_energy">    -16.50464301 </i>
    <i name="e_wo_entrp">    -16.50395004 </i>
    <i name="e_0_energy">    -16.50446977 </i>
   </energy>
  </scstep>
  <scstep>
   <time name="diag">    0.02    0.02</time>
   <time name="diis">    0.04    0.04</time>
   <time name="orth">    0.00    0.00</time>
   <time name="total">    0.11    0.11</time>
   <energy>
    <i name="e_fr_energy">    -16.50463883 </i>
    <i name="e_wo_entrp">    -16.50396739 </i>
    <i name="e_0_energy">    -16.50447097 </i>
   </energy>
  </scstep>
  <scstep>
   <time name="diag">    0.02    0.02</time>
   <time name="diis">    0.03    0.03</time>
   <time name="orth">    0.00    0.00</time>
   <time name="total">    0.08    0.08</time>
   <energy>
    <i name="alphaZ">    123.42135875 </i>
    <i name="ewald">  -1189.78329989 </i>
    <i name="hartreedc">   -186.95344148 </i>
    <i name="XCdc">      8.46535408 </i>
    <i name="pawpsdc">   1445.69722186 </i>
    <i name="pawaedc">  -1463.98040626 </i>
    <i name="eentropy">     -0.00067235 </i>
    <i name="bandstr">     58.03959268 </i>
    <i name="atom">   1188.58965621 </i>
    <i name="e_fr_energy">    -16.50463641 </i>
    <i name="e_wo_entrp">    -16.50396406 </i>
    <i name="e_0_energy">    -16.50446832 </i>
   </energy>
  </scstep>
  <structure>
   <crystal>
    <varray name="basis" >
     <v>       2.81888979       0.00000000      -0.00000000 </v>
     <v>       0.00000000       2.81888979       0.00000000 </v>
     <v>       0.00000000       0.00000000       2.81888979 </v>
    </varray>
    <i name="volume">     22.39929189 </i>
    <varray name="rec_basis" >
     <v>       0.35474959      -0.00000000      -0.00000000 </v>
     <v>      -0.00000000       0.35474959      -0.00000000 </v>
     <v>       0.00000000      -0.00000000       0.35474959 </v>
    </varray>
   </crystal>
   <varray name="positions" >
    <v>       0.00000000       0.00000000      -0.00000000 </v>
    <v>       0.50000000       0.50000000       0.50000000 </v>
   </varray>
  </structure>
  <varray name="forces" >
   <v>      -0.00000000      -0.00000000       0.00000000 </v>
   <v>       0.00000000       0.00000000      -0.00000000 </v>
  </varray>
  <varray name="stress" >
   <v>       0.48378880       0.00000000       0.00000000 </v>
   <v>       0.00000000       0.48378880      -0.00000000 </v>
   <v>       0.00000000       0.00000000       0.48378880 </v>
  </varray>
  <energy>
   <i name="e_fr_energy">    -16.50463641 </i>
   <i name="e_wo_entrp">    -16.50446832 </i>
   <i name="e_0_energy">     -0.00067235 </i>
  </energy>
  <time name="totalsc">    0.68    0.68</time>
  <eigenvalues>
   <array>
    <dimension dim="1">band</dimension>
    <dimension dim="2">kpoint</dimension>
    <dimension dim="3">spin</dimension>
    <field>eigene</field>
    <field>occ</field>
    <set>
     <set comment="spin 1">
      <set comment="kpoint 1">
       <r>   -2.5405    1.0000 </r>
       <r>    1.0303    1.0000 </r>
       <r>    1.0303    1.0000 </r>
       <r>    3.5968    1.0000 </r>
       <r>    3.5968    1.0000 </r>
       <r>    3.5968    1.0000 </r>
       <r>    4.8642    1.0000 </r>
       <r>    4.8642    1.0000 </r>
       <r>    6.0558    0.0033 </r>
       <r>    6.0558    0.0033 </r>
       <r>    6.0558    0.0033 </r>
       <r>   16.0106    0.0000 </r>
       <r>   16.0106    0.0000 </r>
      </set>
      <set comment="kpoint 2">
       <r>   -1.7231    1.0000 </r>
       <r>    1.3632    1.0000 </r>
       <r>    1.3827    1.0000 </r>
       <r>    3.6054    1.0000 </r>
       <r>    3.6054    1.0000 </r>
       <r>    3.8222    1.0000 </r>
       <r>    4.4943    1.0000 </r>
       <r>    5.0087    1.0000 </r>
       <r>    5.4487    1.0000 </r>
       <r>    5.4487    1.0000 </r>
       <r>    5.8126    0.9925 </r>
       <r>   12.1578    0.0000 </r>
       <r>   17.4945    0.0000 </r>
      </set>
      <set comment="kpoint 3">
       <r>    0.3196    1.0000 </r>
       <r>    1.6894    1.0000 </r>
       <r>    2.3250    1.0000 </r>
       <r>    3.5199    1.0000 </r>
       <r>    3.7973    1.0000 </r>
       <r>    3.7973    1.0000 </r>
       <r>    4.4221    1.0000 </r>
       <r>    4.4325    1.0000 </r>
       <r>    4.4325    1.0000 </r>
       <r>    5.1821    1.0000 </r>
       <r>    5.5049    1.0000 </r>
       <r>    7.6032    0.0000 </r>
       <r>   21.0516    0.0000 </r>
      </set>
      <set comment="kpoint 4">
       <r>   -0.9826    1.0000 </r>
       <r>    1.5669    1.0000 </r>
       <r>    1.7864    1.0000 </r>
       <r>    3.1986    1.0000 </r>
       <r>    3.4843    1.0000 </r>
       <r>    4.4368    1.0000 </r>
       <r>    4.5416    1.0000 </r>
       <r>    4.6609    1.0000 </r>
       <r>    4.9078    1.0000 </r>
       <r>    4.9336    1.0000 </r>
       <r>    6.1499    0.0008 </r>
       <r>   12.3742    0.0000 </r>
       <r>   14.3088    0.0000 </r>
      </set>
      <set comment="kpoint 5">
       <r>    0.6762    1.0000 </r>
       <r>    1.6655    1.0000 </r>
       <r>    2.6483    1.0000 </r>
       <r>    3.0942    1.0000 </r>
       <r>    3.3562    1.0000 </r>
       <r>    3.5596    1.0000 </r>
       <r>    4.4764    1.0000 </r>
       <r>    4.5266    1.0000 </r>
       <r>    5.2233    1.0000 </r>
       <r>    5.4180    1.0000 </r>
       <r>    5.8999    0.2385 </r>
       <r>    8.1420    0.0000 </r>
       <r>   16.3763    0.0000 </r>
      </set>
      <set comment="kpoint 6">
       <r>    0.9300    1.0000 </r>
       <r>    1.1874    1.0000 </r>
       <r>    2.5956    1.0000 </r>
       <r>    2.7568    1.0000 </r>
       <r>    3.9756    1.0000 </r>
       <r>    4.7344    1.0000 </r>
       <r>    4.7660    1.0000 </r>
       <r>    5.0311    1.0000 </r>
       <r>    5.2744    1.0000 </r>
       <r>    6.0216   -0.0126 </r>
       <r>    6.3042    0.0000 </r>
       <r>    7.8756    0.0000 </r>
       <r>   13.4920    0.0000 </r>
      </set>
      <set comment="kpoint 7">
       <r>   -0.2698    1.0000 </r>
       <r>    1.9763    1.0000 </r>
       <r>    1.9763    1.0000 </r>
       <r>    3.0579    1.0000 </r>
       <r>    3.0579    1.0000 </r>
       <r>    3.5466    1.0000 </r>
       <r>    4.8206    1.0000 </r>
       <r>    4.8206    1.0000 </r>
       <r>    5.1464    1.0000 </r>
       <r>    5.5618    0.9998 </r>
       <r>    5.5618    0.9998 </r>
       <r>   13.6415    0.0000 </r>
       <r>   13.6415    0.0000 </r>
      </set>
      <set comment="kpoint 8">
       <r>    1.1906    1.0000 </r>
       <r>    2.0796    1.0000 </r>
       <r>    2.4003    1.0000 </r>
       <r>    2.7718    1.0000 </r>
       <r>    3.1005    1.0000 </r>
       <r>    3.2269    1.0000 </r>
       <r>    4.6461    1.0000 </r>
       <r>    4.8010    1.0000 </r>
       <r>    5.1501    1.0000 </r>
       <r>    5.5632    0.9998 </r>
       <r>    6.3913    0.0000 </r>
       <r>    9.1748    0.0000 </r>
       <r>   16.4420    0.0000 </r>
      </set>
      <set comment="kpoint 9">
       <r>    1.5208    1.0000 </r>
       <r>    1.6758    1.0000 </r>
       <r>    2.5145    1.0000 </r>
       <r>    2.5917    1.0000 </r>
       <r>    3.6265    1.0000 </r>
       <r>    3.7289    1.0000 </r>
       <r>    4.9154    1.0000 </r>
       <r>    4.9429    1.0000 </r>
       <r>    5.0446    1.0000 </r>
       <r>    5.4190    1.0000 </r>
       <r>    7.9213    0.0000 </r>
       <r>    9.8758    0.0000 </r>
       <r>   13.6226    0.0000 </r>
      </set>
      <set comment="kpoint 10">
       <r>    2.1841    1.0000 </r>
       <r>    2.4898    1.0000 </r>
       <r>    2.4898    1.0000 </r>
       <r>    2.8245    1.0000 </r>
       <r>    2.8739    1.0000 </r>
       <r>    2.8739    1.0000 </r>
       <r>    5.0619    1.0000 </r>
       <r>    5.0619    1.0000 </r>
       <r>    5.0955    1.0000 </r>
       <r>    5.0955    1.0000 </r>
       <r>   10.3614    0.0000 </r>
       <r>   13.1882    0.0000 </r>
       <r>   13.1882    0.0000 </r>
      </set>
     </set>
     <set comment="spin 2">
      <set comment="kpoint 1">
       <r>   -2.3869    1.0000 </r>
       <r>    2.7896    1.0000 </r>
       <r>    2.7896    1.0000 </r>
       <r>    5.4295    1.0000 </r>
       <r>    5.4295    1.0000 </r>
       <r>    5.4295    1.0000 </r>
       <r>    7.5052    0.0000 </r>
       <r>    7.5052    0.0000 </r>
       <r>    8.1639    0.0000 </r>
       <r>    8.1639    0.0000 </r>
       <r>    8.1639    0.0000 </r>
       <r>   16.2596    0.0000 </r>
       <r>   16.2596    0.0000 </r>
      </set>
      <set comment="kpoint 2">
       <r>   -1.5620    1.0000 </r>
       <r>    3.0292    1.0000 </r>
       <r>    3.2054    1.0000 </r>
       <r>    5.4120    1.0000 </r>
       <r>    5.4120    1.0000 </r>
       <r>    5.6778    0.9952 </r>
       <r>    7.0324    0.0000 </r>
       <r>    7.3995    0.0000 </r>
       <r>    7.3995    0.0000 </r>
       <r>    7.6769    0.0000 </r>
       <r>    7.8907    0.0000 </r>
       <r>   12.9108    0.0000 </r>
       <r>   17.9072    0.0000 </r>
      </set>
      <set comment="kpoint 3">
       <r>    0.6079    1.0000 </r>
       <r>    2.7474    1.0000 </r>
       <r>    4.3340    1.0000 </r>
       <r>    5.5674    0.9998 </r>
       <r>    5.5674    0.9998 </r>
       <r>    5.8027    1.0238 </r>
       <r>    6.2318    0.0000 </r>
       <r>    6.2318    0.0000 </r>
       <r>    6.3408    0.0000 </r>
       <r>    7.1859    0.0000 </r>
       <r>    8.0787    0.0000 </r>
       <r>    9.2787    0.0000 </r>
       <r>   21.6273    0.0000 </r>
      </set>
      <set comment="kpoint 4">
       <r>   -0.7969    1.0000 </r>
       <r>    3.3079    1.0000 </r>
       <r>    3.4831    1.0000 </r>
       <r>    4.9548    1.0000 </r>
       <r>    5.2437    1.0000 </r>
       <r>    6.3472    0.0000 </r>
       <r>    6.3747    0.0000 </r>
       <r>    6.8138    0.0000 </r>
       <r>    7.1753    0.0000 </r>
       <r>    7.5573    0.0000 </r>
       <r>    8.2688    0.0000 </r>
       <r>   13.2075    0.0000 </r>
       <r>   15.1798    0.0000 </r>
      </set>
      <set comment="kpoint 5">
       <r>    1.1213    1.0000 </r>
       <r>    2.8986    1.0000 </r>
       <r>    4.3748    1.0000 </r>
       <r>    4.8059    1.0000 </r>
       <r>    5.0374    1.0000 </r>
       <r>    5.2886    1.0000 </r>
       <r>    6.5166    0.0000 </r>
       <r>    6.7507    0.0000 </r>
       <r>    7.2163    0.0000 </r>
       <r>    7.9595    0.0000 </r>
       <r>    7.9787    0.0000 </r>
       <r>    9.6526    0.0000 </r>
       <r>   17.2735    0.0000 </r>
      </set>
      <set comment="kpoint 6">
       <r>    1.9335    1.0000 </r>
       <r>    2.4786    1.0000 </r>
       <r>    4.2474    1.0000 </r>
       <r>    4.4126    1.0000 </r>
       <r>    5.5277    1.0000 </r>
       <r>    5.7447    1.0291 </r>
       <r>    7.0669    0.0000 </r>
       <r>    7.3207    0.0000 </r>
       <r>    7.7233    0.0000 </r>
       <r>    8.1172    0.0000 </r>
       <r>    8.4412    0.0000 </r>
       <r>    9.0984    0.0000 </r>
       <r>   14.7666    0.0000 </r>
      </set>
      <set comment="kpoint 7">
       <r>   -0.0630    1.0000 </r>
       <r>    3.6855    1.0000 </r>
       <r>    3.6855    1.0000 </r>
       <r>    4.7823    1.0000 </r>
       <r>    4.7823    1.0000 </r>
       <r>    5.1820    1.0000 </r>
       <r>    7.0558    0.0000 </r>
       <r>    7.4082    0.0000 </r>
       <r>    7.4082    0.0000 </r>
       <r>    7.6095    0.0000 </r>
       <r>    7.6095    0.0000 </r>
       <r>   14.5647    0.0000 </r>
       <r>   14.5647    0.0000 </r>
      </set>
      <set comment="kpoint 8">
       <r>    1.7008    1.0000 </r>
       <r>    3.2876    1.0000 </r>
       <r>    4.1049    1.0000 </r>
       <r>    4.4551    1.0000 </r>
       <r>    4.6459    1.0000 </r>
       <r>    4.8602    1.0000 </r>
       <r>    6.9452    0.0000 </r>
       <r>    7.0462    0.0000 </r>
       <r>    7.7124    0.0000 </r>
       <r>    7.7772    0.0000 </r>
       <r>    8.2942    0.0000 </r>
       <r>   10.5962    0.0000 </r>
       <r>   17.3337    0.0000 </r>
      </set>
      <set comment="kpoint 9">
       <r>    2.5672    1.0000 </r>
       <r>    2.9989    1.0000 </r>
       <r>    4.1037    1.0000 </r>
       <r>    4.1737    1.0000 </r>
       <r>    4.8279    1.0000 </r>
       <r>    4.9727    1.0000 </r>
       <r>    7.3256    0.0000 </r>
       <r>    7.4515    0.0000 </r>
       <r>    7.7345    0.0000 </r>
       <r>    7.8168    0.0000 </r>
       <r>    9.5003    0.0000 </r>
       <r>   11.0434    0.0000 </r>
       <r>   14.7987    0.0000 </r>
      </set>
      <set comment="kpoint 10">
       <r>    3.6033    1.0000 </r>
       <r>    3.8158    1.0000 </r>
       <r>    3.9424    1.0000 </r>
       <r>    3.9424    1.0000 </r>
       <r>    4.2017    1.0000 </r>
       <r>    4.2017    1.0000 </r>
       <r>    7.7075    0.0000 </r>
       <r>    7.7075    0.0000 </r>
       <r>    7.7341    0.0000 </r>
       <r>    7.7341    0.0000 </r>
       <r>   11.6394    0.0000 </r>
       <r>   14.1532    0.0000 </r>
       <r>   14.1532    0.0000 </r>
      </set>
     </set>
    </set>
   </array>
  </eigenvalues>
  <separator name="orbital magnetization" >
   <v name="MAGDIPOLOUT">      0.00000000      0.00000000      0.00000000</v>
  </separator>
  <dos>
   <i name="efermi">      5.87385647 </i>
   <total>
    <array>
     <dimension dim="1">gridpoints</dimension>
     <dimension dim="2">spin</dimension>
     <field>energy</field>
     <field>total</field>
     <field>integrated</field>
     <set>
      <set comment="spin 1">
       <r>    -3.3108     0.0000     0.0000 </r>
       <r>    -3.1724     0.0000     0.0000 </r>
       <r>    -3.0341     0.0000     0.0000 </r>
       <r>    -2.8957     0.0000     0.0000 </r>
       <r>    -2.7573     0.0003     0.0000 </r>
       <r>    -2.6190    -0.0025    -0.0003 </r>
       <r>    -2.4806     0.0593     0.0079 </r>
       <r>    -2.3423     0.0005     0.0080 </r>
       <r>    -2.2039     0.0003     0.0080 </r>
       <r>    -2.0656     0.0000     0.0080 </r>
       <r>    -1.9272     0.0017     0.0082 </r>
       <r>    -1.7889    -0.0047     0.0076 </r>
       <r>    -1.6505     0.3594     0.0573 </r>
       <r>    -1.5122    -0.0111     0.0558 </r>
       <r>    -1.3738     0.0016     0.0560 </r>
       <r>    -1.2355     0.0013     0.0562 </r>
       <r>    -1.0971    -0.0309     0.0519 </r>
       <r>    -0.9588     0.5443     0.1272 </r>
       <r>    -0.8204     0.1815     0.1523 </r>
       <r>    -0.6821    -0.0026     0.1520 </r>
       <r>    -0.5437     0.0006     0.1521 </r>
       <r>    -0.4053    -0.0111     0.1505 </r>
       <r>    -0.2670     0.2558     0.1859 </r>
       <r>    -0.1286     0.2257     0.2171 </r>
       <r>     0.0097    -0.0086     0.2160 </r>
       <r>     0.1481     0.0004     0.2160 </r>
       <r>     0.2864     0.0615     0.2245 </r>
       <r>     0.4248     0.3051     0.2667 </r>
       <r>     0.5631    -0.0813     0.2555 </r>
       <r>     0.7015     1.1110     0.4092 </r>
       <r>     0.8398     0.3076     0.4518 </r>
       <r>     0.9782     0.6900     0.5472 </r>
       <r>     1.1165     0.0956     0.5604 </r>
       <r>     1.2549     2.1253     0.8545 </r>
       <r>     1.3932     0.4493     0.9167 </r>
       <r>     1.5316     1.1664     1.0780 </r>
       <r>     1.6699     2.6636     1.4465 </r>
       <r>     1.8083     2.2021     1.7512 </r>
       <r>     1.9467     0.2788     1.7898 </r>
       <r>     2.0850     1.5617     2.0059 </r>
       <r>     2.2234     1.0028     2.1446 </r>
       <r>     2.3617     0.5027     2.2141 </r>
       <r>     2.5001     2.2825     2.5299 </r>
       <r>     2.6384     3.7592     3.0500 </r>
       <r>     2.7768     2.3018     3.3685 </r>
       <r>     2.9151     2.1280     3.6629 </r>
       <r>     3.0535     0.7477     3.7664 </r>
       <r>     3.1918     3.7029     4.2787 </r>
       <r>     3.3302     1.8102     4.5291 </r>
       <r>     3.4685     1.1702     4.6910 </r>
       <r>     3.6069     3.4538     5.1689 </r>
       <r>     3.7452     2.5105     5.5162 </r>
       <r>     3.8836     1.4184     5.7124 </r>
       <r>     4.0219     0.6283     5.7994 </r>
       <r>     4.1603     0.0618     5.8079 </r>
       <r>     4.2987    -0.0309     5.8036 </r>
       <r>     4.4370     1.0812     5.9532 </r>
       <r>     4.5754     4.3440     6.5542 </r>
       <r>     4.7137     2.3525     6.8797 </r>
       <r>     4.8521     3.3616     7.3448 </r>
       <r>     4.9904     4.6256     7.9848 </r>
       <r>     5.1288     4.5732     8.6175 </r>
       <r>     5.2671     3.3786     9.0849 </r>
       <r>     5.4055     1.5446     9.2986 </r>
       <r>     5.5438     3.5453     9.7891 </r>
       <r>     5.6822     1.6023    10.0108 </r>
       <r>     5.8205     0.0689    10.0203 </r>
       <r>     5.9589     1.5648    10.2368 </r>
       <r>     6.0972     0.9235    10.3646 </r>
       <r>     6.2356     0.6682    10.4570 </r>
       <r>     6.3740     1.1429    10.6152 </r>
       <r>     6.5123     0.9790    10.7506 </r>
       <r>     6.6507    -0.0499    10.7437 </r>
       <r>     6.7890     0.0021    10.7440 </r>
       <r>     6.9274     0.0000    10.7440 </r>
       <r>     7.0657     0.0000    10.7440 </r>
       <r>     7.2041     0.0000    10.7440 </r>
       <r>     7.3424     0.0005    10.7441 </r>
       <r>     7.4808    -0.0128    10.7423 </r>
       <r>     7.6191     0.2448    10.7762 </r>
       <r>     7.7575     0.0862    10.7881 </r>
       <r>     7.8958     0.8604    10.9071 </r>
       <r>     8.0342     1.2482    11.0798 </r>
       <r>     8.1725     1.1093    11.2333 </r>
       <r>     8.3109     0.2804    11.2721 </r>
       <r>     8.4492    -0.0009    11.2720 </r>
       <r>     8.5876     0.0003    11.2720 </r>
       <r>     8.7260     0.0000    11.2720 </r>
       <r>     8.8643     0.0003    11.2720 </r>
       <r>     9.0027     0.0008    11.2721 </r>
       <r>     9.1410     0.2380    11.3051 </r>
       <r>     9.2794     1.2173    11.4735 </r>
       <r>     9.4177    -0.0720    11.4635 </r>
       <r>     9.5561     0.0037    11.4640 </r>
       <r>     9.6944     0.0042    11.4646 </r>
       <r>     9.8328     0.1405    11.4840 </r>
       <r>     9.9711     1.3145    11.6659 </r>
       <r>    10.1095    -0.0752    11.6555 </r>
       <r>    10.2478    -0.0165    11.6532 </r>
       <r>    10.3862     0.3670    11.7040 </r>
       <r>    10.5245     0.1170    11.7202 </r>
       <r>    10.6629    -0.0015    11.7200 </r>
       <r>    10.8012     0.0001    11.7200 </r>
       <r>    10.9396     0.0000    11.7200 </r>
       <r>    11.0780     0.0000    11.7200 </r>
       <r>    11.2163     0.0000    11.7200 </r>
       <r>    11.3547     0.0000    11.7200 </r>
       <r>    11.4930     0.0000    11.7200 </r>
       <r>    11.6314     0.0000    11.7200 </r>
       <r>    11.7697     0.0000    11.7200 </r>
       <r>    11.9081     0.0007    11.7201 </r>
       <r>    12.0464    -0.0163    11.7178 </r>
       <r>    12.1848     0.2857    11.7574 </r>
       <r>    12.3231     0.1158    11.7734 </r>
       <r>    12.4615     0.6887    11.8687 </r>
       <r>    12.5998    -0.0364    11.8636 </r>
       <r>    12.7382     0.0026    11.8640 </r>
       <r>    12.8765     0.0002    11.8640 </r>
       <r>    13.0149     0.0009    11.8641 </r>
       <r>    13.1532     0.1498    11.8849 </r>
       <r>    13.2916     0.8240    11.9989 </r>
       <r>    13.4300    -0.0381    11.9936 </r>
       <r>    13.5683     0.7333    12.0951 </r>
       <r>    13.7067     2.3288    12.4173 </r>
       <r>    13.8450    -0.0771    12.4066 </r>
       <r>    13.9834     0.0102    12.4080 </r>
       <r>    14.1217     0.0028    12.4084 </r>
       <r>    14.2601     0.0446    12.4146 </r>
       <r>    14.3984     0.6812    12.5088 </r>
       <r>    14.5368    -0.0374    12.5036 </r>
       <r>    14.6751     0.0025    12.5040 </r>
       <r>    14.8135     0.0000    12.5040 </r>
       <r>    14.9518     0.0000    12.5040 </r>
       <r>    15.0902     0.0000    12.5040 </r>
       <r>    15.2285     0.0000    12.5040 </r>
       <r>    15.3669     0.0000    12.5040 </r>
       <r>    15.5053     0.0000    12.5040 </r>
       <r>    15.6436     0.0000    12.5040 </r>
       <r>    15.7820     0.0004    12.5041 </r>
       <r>    15.9203    -0.0063    12.5032 </r>
       <r>    16.0587     0.1133    12.5189 </r>
       <r>    16.1970     0.0148    12.5209 </r>
       <r>    16.3354     0.0907    12.5335 </r>
       <r>    16.4737     2.4871    12.8776 </r>
       <r>    16.6121     0.1868    12.9034 </r>
       <r>    16.7504     0.0040    12.9040 </r>
       <r>    16.8888     0.0003    12.9040 </r>
       <r>    17.0271     0.0000    12.9040 </r>
       <r>    17.1655     0.0000    12.9040 </r>
       <r>    17.3038     0.0015    12.9042 </r>
       <r>    17.4422     0.0153    12.9063 </r>
       <r>    17.5805     0.3467    12.9543 </r>
       <r>    17.7189    -0.0180    12.9518 </r>
       <r>    17.8573     0.0014    12.9520 </r>
       <r>    17.9956     0.0000    12.9520 </r>
       <r>    18.1340     0.0000    12.9520 </r>
       <r>    18.2723     0.0000    12.9520 </r>
       <r>    18.4107     0.0000    12.9520 </r>
       <r>    18.5490     0.0000    12.9520 </r>
       <r>    18.6874     0.0000    12.9520 </r>
       <r>    18.8257     0.0000    12.9520 </r>
       <r>    18.9641     0.0000    12.9520 </r>
       <r>    19.1024     0.0000    12.9520 </r>
       <r>    19.2408     0.0000    12.9520 </r>
       <r>    19.3791     0.0000    12.9520 </r>
       <r>    19.5175     0.0000    12.9520 </r>
       <r>    19.6558     0.0000    12.9520 </r>
       <r>    19.7942     0.0000    12.9520 </r>
       <r>    19.9325     0.0000    12.9520 </r>
       <r>    20.0709     0.0000    12.9520 </r>
       <r>    20.2093     0.0000    12.9520 </r>
       <r>    20.3476     0.0000    12.9520 </r>
       <r>    20.4860     0.0000    12.9520 </r>
       <r>    20.6243     0.0000    12.9520 </r>
       <r>    20.7627     0.0002    12.9520 </r>
       <r>    20.9010    -0.0038    12.9515 </r>
       <r>    21.0394     0.1329    12.9699 </r>
       <r>    21.1777     0.2287    13.0015 </r>
       <r>    21.3161    -0.0115    12.9999 </r>
       <r>    21.4544     0.0004    13.0000 </r>
       <r>    21.5928     0.0000    13.0000 </r>
       <r>    21.7311     0.0000    13.0000 </r>
       <r>    21.8695     0.0000    13.0000 </r>
       <r>    22.0078     0.0000    13.0000 </r>
       <r>    22.1462     0.0000    13.0000 </r>
       <r>    22.2845     0.0000    13.0000 </r>
       <r>    22.4229     0.0000    13.0000 </r>
       <r>    22.5613     0.0000    13.0000 </r>
       <r>    22.6996     0.0000    13.0000 </r>
       <r>    22.8380     0.0000    13.0000 </r>
       <r>    22.9763     0.0000    13.0000 </r>
       <r>    23.1147     0.0000    13.0000 </r>
       <r>    23.2530     0.0000    13.0000 </r>
       <r>    23.3914     0.0000    13.0000 </r>
       <r>    23.5297     0.0000    13.0000 </r>
       <r>    23.6681     0.0000    13.0000 </r>
       <r>    23.8064     0.0000    13.0000 </r>
       <r>    23.9448     0.0000    13.0000 </r>
       <r>    24.0831     0.0000    13.0000 </r>
       <r>    24.2215     0.0000    13.0000 </r>
       <r>    24.3598     0.0000    13.0000 </r>
       <r>    24.4982     0.0000    13.0000 </r>
       <r>    24.6366     0.0000    13.0000 </r>
       <r>    24.7749     0.0000    13.0000 </r>
       <r>    24.9133     0.0000    13.0000 </r>
       <r>    25.0516     0.0000    13.0000 </r>
       <r>    25.1900     0.0000    13.0000 </r>
       <r>    25.3283     0.0000    13.0000 </r>
       <r>    25.4667     0.0000    13.0000 </r>
       <r>    25.6050     0.0000    13.0000 </r>
       <r>    25.7434     0.0000    13.0000 </r>
       <r>    25.8817     0.0000    13.0000 </r>
       <r>    26.0201     0.0000    13.0000 </r>
       <r>    26.1584     0.0000    13.0000 </r>
       <r>    26.2968     0.0000    13.0000 </r>
       <r>    26.4351     0.0000    13.0000 </r>
       <r>    26.5735     0.0000    13.0000 </r>
       <r>    26.7118     0.0000    13.0000 </r>
       <r>    26.8502     0.0000    13.0000 </r>
       <r>    26.9886     0.0000    13.0000 </r>
       <r>    27.1269     0.0000    13.0000 </r>
       <r>    27.2653     0.0000    13.0000 </r>
       <r>    27.4036     0.0000    13.0000 </r>
       <r>    27.5420     0.0000    13.0000 </r>
       <r>    27.6803     0.0000    13.0000 </r>
       <r>    27.8187     0.0000    13.0000 </r>
       <r>    27.9570     0.0000    13.0000 </r>
       <r>    28.0954     0.0000    13.0000 </r>
       <r>    28.2337     0.0000    13.0000 </r>
       <r>    28.3721     0.0000    13.0000 </r>
       <r>    28.5104     0.0000    13.0000 </r>
       <r>    28.6488     0.0000    13.0000 </r>
       <r>    28.7871     0.0000    13.0000 </r>
       <r>    28.9255     0.0000    13.0000 </r>
       <r>    29.0638     0.0000    13.0000 </r>
       <r>    29.2022     0.0000    13.0000 </r>
       <r>    29.3406     0.0000    13.0000 </r>
       <r>    29.4789     0.0000    13.0000 </r>
       <r>    29.6173     0.0000    13.0000 </r>
       <r>    29.7556     0.0000    13.0000 </r>
       <r>    29.8940     0.0000    13.0000 </r>
       <r>    30.0323     0.0000    13.0000 </r>
       <r>    30.1707     0.0000    13.0000 </r>
       <r>    30.3090     0.0000    13.0000 </r>
       <r>    30.4474     0.0000    13.0000 </r>
       <r>    30.5857     0.0000    13.0000 </r>
       <r>    30.7241     0.0000    13.0000 </r>
       <r>    30.8624     0.0000    13.0000 </r>
       <r>    31.0008     0.0000    13.0000 </r>
       <r>    31.1391     0.0000    13.0000 </r>
       <r>    31.2775     0.0000    13.0000 </r>
       <r>    31.4158     0.0000    13.0000 </r>
       <r>    31.5542     0.0000    13.0000 </r>
       <r>    31.6926     0.0000    13.0000 </r>
       <r>    31.8309     0.0000    13.0000 </r>
       <r>    31.9693     0.0000    13.0000 </r>
       <r>    32.1076     0.0000    13.0000 </r>
       <r>    32.2460     0.0000    13.0000 </r>
       <r>    32.3843     0.0000    13.0000 </r>
       <r>    32.5227     0.0000    13.0000 </r>
       <r>    32.6610     0.0000    13.0000 </r>
       <r>    32.7994     0.0000    13.0000 </r>
       <r>    32.9377     0.0000    13.0000 </r>
       <r>    33.0761     0.0000    13.0000 </r>
       <r>    33.2144     0.0000    13.0000 </r>
       <r>    33.3528     0.0000    13.0000 </r>
       <r>    33.4911     0.0000    13.0000 </r>
       <r>    33.6295     0.0000    13.0000 </r>
       <r>    33.7678     0.0000    13.0000 </r>
       <r>    33.9062     0.0000    13.0000 </r>
       <r>    34.0446     0.0000    13.0000 </r>
       <r>    34.1829     0.0000    13.0000 </r>
       <r>    34.3213     0.0000    13.0000 </r>
       <r>    34.4596     0.0000    13.0000 </r>
       <r>    34.5980     0.0000    13.0000 </r>
       <r>    34.7363     0.0000    13.0000 </r>
       <r>    34.8747     0.0000    13.0000 </r>
       <r>    35.0130     0.0000    13.0000 </r>
       <r>    35.1514     0.0000    13.0000 </r>
       <r>    35.2897     0.0000    13.0000 </r>
       <r>    35.4281     0.0000    13.0000 </r>
       <r>    35.5664     0.0000    13.0000 </r>
       <r>    35.7048     0.0000    13.0000 </r>
       <r>    35.8431     0.0000    13.0000 </r>
       <r>    35.9815     0.0000    13.0000 </r>
       <r>    36.1199     0.0000    13.0000 </r>
       <r>    36.2582     0.0000    13.0000 </r>
       <r>    36.3966     0.0000    13.0000 </r>
       <r>    36.5349     0.0000    13.0000 </r>
[...]
       <r>    20.3107     0.0000    12.9520 </r>
       <r>    20.4272     0.0000    12.9520 </r>
       <r>    20.5436     0.0000    12.9520 </r>
       <r>    20.6601     0.0000    12.9520 </r>
       <r>    20.7765     0.0017    12.9522 </r>
       <r>    20.8930    -0.0218    12.9497 </r>
       <r>    21.0094     0.2731    12.9815 </r>
       <r>    21.1259     0.1719    13.0015 </r>
       <r>    21.2423    -0.0137    12.9999 </r>
       <r>    21.3588     0.0010    13.0000 </r>
       <r>    21.4752     0.0000    13.0000 </r>
       <r>    21.5917     0.0000    13.0000 </r>
       <r>    21.7081     0.0000    13.0000 </r>
       <r>    21.8246     0.0000    13.0000 </r>
       <r>    21.9410     0.0000    13.0000 </r>
       <r>    22.0575     0.0000    13.0000 </r>
       <r>    22.1739     0.0000    13.0000 </r>
       <r>    22.2904     0.0000    13.0000 </r>
       <r>    22.4068     0.0000    13.0000 </r>
       <r>    22.5233     0.0000    13.0000 </r>
       <r>    22.6397     0.0000    13.0000 </r>
       <r>    22.7562     0.0000    13.0000 </r>
       <r>    22.8726     0.0000    13.0000 </r>
       <r>    22.9891     0.0000    13.0000 </r>
       <r>    23.1055     0.0000    13.0000 </r>
       <r>    23.2220     0.0000    13.0000 </r>
       <r>    23.3384     0.0000    13.0000 </r>
       <r>    23.4549     0.0000    13.0000 </r>
       <r>    23.5713     0.0000    13.0000 </r>
       <r>    23.6878     0.0000    13.0000 </r>
       <r>    23.8042     0.0000    13.0000 </r>
       <r>    23.9207     0.0000    13.0000 </r>
       <r>    24.0372     0.0000    13.0000 </r>
       <r>    24.1536     0.0000    13.0000 </r>
       <r>    24.2701     0.0000    13.0000 </r>
       <r>    24.3865     0.0000    13.0000 </r>
       <r>    24.5030     0.0000    13.0000 </r>
       <r>    24.6194     0.0000    13.0000 </r>
       <r>    24.7359     0.0000    13.0000 </r>
       <r>    24.8523     0.0000    13.0000 </r>
       <r>    24.9688     0.0000    13.0000 </r>
       <r>    25.0852     0.0000    13.0000 </r>
       <r>    25.2017     0.0000    13.0000 </r>
       <r>    25.3181     0.0000    13.0000 </r>
       <r>    25.4346     0.0000    13.0000 </r>
       <r>    25.5510     0.0000    13.0000 </r>
       <r>    25.6675     0.0000    13.0000 </r>
       <r>    25.7839     0.0000    13.0000 </r>
       <r>    25.9004     0.0000    13.0000 </r>
       <r>    26.0168     0.0000    13.0000 </r>
       <r>    26.1333     0.0000    13.0000 </r>
       <r>    26.2497     0.0000    13.0000 </r>
       <r>    26.3662     0.0000    13.0000 </r>
       <r>    26.4826     0.0000    13.0000 </r>
       <r>    26.5991     0.0000    13.0000 </r>
       <r>    26.7155     0.0000    13.0000 </r>
       <r>    26.8320     0.0000    13.0000 </r>
       <r>    26.9484     0.0000    13.0000 </r>
       <r>    27.0649     0.0000    13.0000 </r>
       <r>    27.1813     0.0000    13.0000 </r>
       <r>    27.2978     0.0000    13.0000 </r>
       <r>    27.4142     0.0000    13.0000 </r>
       <r>    27.5307     0.0000    13.0000 </r>
       <r>    27.6471     0.0000    13.0000 </r>
       <r>    27.7636     0.0000    13.0000 </r>
       <r>    27.8800     0.0000    13.0000 </r>
       <r>    27.9965     0.0000    13.0000 </r>
       <r>    28.1129     0.0000    13.0000 </r>
       <r>    28.2294     0.0000    13.0000 </r>
       <r>    28.3458     0.0000    13.0000 </r>
       <r>    28.4623     0.0000    13.0000 </r>
       <r>    28.5787     0.0000    13.0000 </r>
       <r>    28.6952     0.0000    13.0000 </r>
       <r>    28.8116     0.0000    13.0000 </r>
       <r>    28.9281     0.0000    13.0000 </r>
       <r>    29.0445     0.0000    13.0000 </r>
       <r>    29.1610     0.0000    13.0000 </r>
       <r>    29.2774     0.0000    13.0000 </r>
       <r>    29.3939     0.0000    13.0000 </r>
       <r>    29.5103     0.0000    13.0000 </r>
       <r>    29.6268     0.0000    13.0000 </r>
       <r>    29.7432     0.0000    13.0000 </r>
       <r>    29.8597     0.0000    13.0000 </r>
       <r>    29.9762     0.0000    13.0000 </r>
       <r>    30.0926     0.0000    13.0000 </r>
       <r>    30.2091     0.0000    13.0000 </r>
       <r>    30.3255     0.0000    13.0000 </r>
       <r>    30.4420     0.0000    13.0000 </r>
       <r>    30.5584     0.0000    13.0000 </r>
      </set>
      <set comment="spin 2">
       <r>    -4.3769     0.0000     0.0000 </r>
       <r>    -4.2604     0.0000     0.0000 </r>
       <r>    -4.1440     0.0000     0.0000 </r>
       <r>    -4.0275     0.0000     0.0000 </r>
       <r>    -3.9111     0.0000     0.0000 </r>
       <r>    -3.7946     0.0000     0.0000 </r>
       <r>    -3.6782     0.0000     0.0000 </r>
       <r>    -3.5617     0.0000     0.0000 </r>
       <r>    -3.4453     0.0000     0.0000 </r>
       <r>    -3.3288     0.0000     0.0000 </r>
       <r>    -3.2124     0.0000     0.0000 </r>
       <r>    -3.0959     0.0000     0.0000 </r>
       <r>    -2.9795     0.0000     0.0000 </r>
       <r>    -2.8630     0.0000     0.0000 </r>
       <r>    -2.7466     0.0000     0.0000 </r>
       <r>    -2.6301     0.0002     0.0000 </r>
       <r>    -2.5137    -0.0032    -0.0003 </r>
       <r>    -2.3972     0.0393     0.0042 </r>
       <r>    -2.2808     0.0350     0.0083 </r>
       <r>    -2.1643    -0.0029     0.0080 </r>
       <r>    -2.0479     0.0002     0.0080 </r>
       <r>    -1.9314     0.0000     0.0080 </r>
       <r>    -1.8150     0.0012     0.0081 </r>
       <r>    -1.6985    -0.0159     0.0063 </r>
       <r>    -1.5821     0.1957     0.0291 </r>
       <r>    -1.4656     0.2500     0.0582 </r>
       <r>    -1.3492    -0.0203     0.0558 </r>
       <r>    -1.2327     0.0015     0.0560 </r>
       <r>    -1.1163     0.0002     0.0560 </r>
       <r>    -0.9998     0.0032     0.0564 </r>
       <r>    -0.8834    -0.0232     0.0537 </r>
       <r>    -0.7669     0.7704     0.1434 </r>
       <r>    -0.6505     0.0768     0.1524 </r>
       <r>    -0.5340    -0.0036     0.1519 </r>
       <r>    -0.4176     0.0007     0.1520 </r>
       <r>    -0.3011     0.0022     0.1523 </r>
       <r>    -0.1846    -0.0291     0.1489 </r>
       <r>    -0.0682     0.3651     0.1914 </r>
       <r>     0.0483     0.2282     0.2180 </r>
       <r>     0.1647    -0.0182     0.2158 </r>
       <r>     0.2812     0.0014     0.2160 </r>
       <r>     0.3976     0.0019     0.2162 </r>
       <r>     0.5141    -0.0170     0.2142 </r>
       <r>     0.6305     0.3738     0.2578 </r>
       <r>     0.7470     0.0564     0.2643 </r>
       <r>     0.8634     0.0011     0.2645 </r>
       <r>     0.9799    -0.0587     0.2576 </r>
       <r>     1.0963     0.7330     0.3430 </r>
       <r>     1.2128     1.0486     0.4651 </r>
       <r>     1.3292    -0.0845     0.4553 </r>
       <r>     1.4457     0.0112     0.4566 </r>
       <r>     1.5621    -0.0648     0.4490 </r>
       <r>     1.6786     0.7994     0.5421 </r>
       <r>     1.7950     0.9558     0.6534 </r>
       <r>     1.9115     0.2917     0.6874 </r>
       <r>     2.0279     0.5250     0.7485 </r>
       <r>     2.1444    -0.0418     0.7436 </r>
       <r>     2.2608     0.0079     0.7446 </r>
       <r>     2.3773    -0.0435     0.7395 </r>
       <r>     2.4937     0.7131     0.8225 </r>
       <r>     2.6102     1.7669     1.0283 </r>
       <r>     2.7266     0.2092     1.0526 </r>
       <r>     2.8431     0.5588     1.1177 </r>
       <r>     2.9595     1.9216     1.3415 </r>
       <r>     3.0760     1.6642     1.5353 </r>
       <r>     3.1924     0.0171     1.5373 </r>
       <r>     3.3089     2.2741     1.8021 </r>
       <r>     3.4253     0.6426     1.8769 </r>
       <r>     3.5418     0.7445     1.9636 </r>
       <r>     3.6582     0.9031     2.0688 </r>
       <r>     3.7747     0.9032     2.1740 </r>
       <r>     3.8911     0.5751     2.2409 </r>
       <r>     4.0076     0.7737     2.3310 </r>
       <r>     4.1240     3.1214     2.6945 </r>
       <r>     4.2405     3.5210     3.1046 </r>
       <r>     4.3569     1.5112     3.2805 </r>
       <r>     4.4734     3.1747     3.6502 </r>
       <r>     4.5898     0.4367     3.7011 </r>
       <r>     4.7063     1.2932     3.8517 </r>
       <r>     4.8227     4.0364     4.3217 </r>
       <r>     4.9392     3.2063     4.6951 </r>
       <r>     5.0556     2.8597     5.0281 </r>
       <r>     5.1721     0.4621     5.0819 </r>
       <r>     5.2885     2.2010     5.3382 </r>
       <r>     5.4050     1.1225     5.4690 </r>
       <r>     5.5214     1.1911     5.6077 </r>
       <r>     5.6379     1.0388     5.7286 </r>
       <r>     5.7543     1.0365     5.8493 </r>
       <r>     5.8708     0.4970     5.9072 </r>
       <r>     5.9873    -0.0272     5.9040 </r>
       <r>     6.1037    -0.0334     5.9001 </r>
       <r>     6.2202     0.4552     5.9532 </r>
       <r>     6.3366     1.4932     6.1270 </r>
       <r>     6.4531     1.2309     6.2704 </r>
       <r>     6.5695     1.4294     6.4368 </r>
       <r>     6.6860     0.0871     6.4470 </r>
       <r>     6.8024     2.0363     6.6841 </r>
       <r>     6.9189     0.9469     6.7944 </r>
       <r>     7.0353     2.9835     7.1418 </r>
       <r>     7.1518     2.3355     7.4138 </r>
       <r>     7.2682     2.4859     7.7033 </r>
       <r>     7.3847     3.3064     8.0883 </r>
       <r>     7.5011     2.5930     8.3902 </r>
       <r>     7.6176     1.3810     8.5511 </r>
       <r>     7.7340     6.6169     9.3216 </r>
       <r>     7.8505     3.8804     9.7735 </r>
       <r>     7.9669     2.6900    10.0867 </r>
       <r>     8.0834     1.6672    10.2809 </r>
       <r>     8.1998     0.8027    10.3743 </r>
       <r>     8.3163     2.2307    10.6341 </r>
       <r>     8.4327     0.7037    10.7161 </r>
       <r>     8.5492     0.2565    10.7459 </r>
       <r>     8.6656    -0.0182    10.7438 </r>
       <r>     8.7821     0.0020    10.7440 </r>
       <r>     8.8985    -0.0000    10.7440 </r>
       <r>     9.0150     0.0301    10.7475 </r>
       <r>     9.1314     0.7719    10.8374 </r>
       <r>     9.2479     0.2302    10.8642 </r>
       <r>     9.3643     0.1417    10.8807 </r>
       <r>     9.4808     1.0695    11.0053 </r>
       <r>     9.5972     1.1075    11.1343 </r>
       <r>     9.7137     1.2631    11.2814 </r>
       <r>     9.8301    -0.0883    11.2711 </r>
       <r>     9.9466     0.0078    11.2720 </r>
       <r>    10.0630     0.0001    11.2720 </r>
       <r>    10.1795     0.0000    11.2720 </r>
       <r>    10.2959     0.0020    11.2722 </r>
       <r>    10.4124    -0.0203    11.2699 </r>
       <r>    10.5288     0.3091    11.3059 </r>
       <r>    10.6453     1.4324    11.4727 </r>
       <r>    10.7617    -0.0789    11.4635 </r>
       <r>    10.8782    -0.0416    11.4586 </r>
       <r>    10.9946     0.6291    11.5319 </r>
       <r>    11.1111     1.1486    11.6657 </r>
       <r>    11.2275    -0.0900    11.6552 </r>
       <r>    11.3440     0.0079    11.6561 </r>
       <r>    11.4604    -0.0105    11.6549 </r>
       <r>    11.5769     0.1457    11.6718 </r>
       <r>    11.6933     0.4416    11.7233 </r>
       <r>    11.8098    -0.0306    11.7197 </r>
       <r>    11.9263     0.0026    11.7200 </r>
       <r>    12.0427     0.0000    11.7200 </r>
       <r>    12.1592     0.0000    11.7200 </r>
       <r>    12.2756     0.0000    11.7200 </r>
       <r>    12.3921     0.0000    11.7200 </r>
       <r>    12.5085     0.0000    11.7200 </r>
       <r>    12.6250     0.0009    11.7201 </r>
       <r>    12.7414    -0.0117    11.7187 </r>
       <r>    12.8579     0.1505    11.7363 </r>
       <r>    12.9743     0.2974    11.7709 </r>
       <r>    13.0908    -0.0601    11.7639 </r>
       <r>    13.2072     0.7378    11.8498 </r>
       <r>    13.3237     0.1288    11.8648 </r>
       <r>    13.4401    -0.0079    11.8639 </r>
       <r>    13.5566     0.0009    11.8640 </r>
       <r>    13.6730     0.0000    11.8640 </r>
       <r>    13.7895     0.0001    11.8640 </r>
       <r>    13.9059     0.0052    11.8646 </r>
       <r>    14.0224    -0.0613    11.8575 </r>
       <r>    14.1388     0.8836    11.9604 </r>
       <r>    14.2553     0.2921    11.9944 </r>
       <r>    14.3717    -0.0335    11.9905 </r>
       <r>    14.4882     0.1990    12.0137 </r>
       <r>    14.6046     0.9066    12.1193 </r>
       <r>    14.7211     0.7279    12.2040 </r>
       <r>    14.8375     1.8618    12.4208 </r>
       <r>    14.9540    -0.1184    12.4070 </r>
       <r>    15.0704     0.0031    12.4074 </r>
       <r>    15.1869     0.7857    12.4989 </r>
       <r>    15.3033     0.0445    12.5041 </r>
       <r>    15.4198    -0.0012    12.5039 </r>
       <r>    15.5362     0.0005    12.5040 </r>
       <r>    15.6527     0.0000    12.5040 </r>
       <r>    15.7691     0.0000    12.5040 </r>
       <r>    15.8856     0.0000    12.5040 </r>
       <r>    16.0020     0.0006    12.5041 </r>
       <r>    16.1185    -0.0076    12.5032 </r>
       <r>    16.2349     0.0984    12.5146 </r>
       <r>    16.3514     0.0496    12.5204 </r>
       <r>    16.4678    -0.0039    12.5200 </r>
       <r>    16.5843     0.0003    12.5200 </r>
       <r>    16.7007     0.0000    12.5200 </r>
       <r>    16.8172     0.0000    12.5200 </r>
       <r>    16.9336     0.0007    12.5201 </r>
       <r>    17.0501     0.0071    12.5209 </r>
       <r>    17.1665    -0.0418    12.5160 </r>
       <r>    17.2830     2.4096    12.7966 </r>
       <r>    17.3994     0.9920    12.9122 </r>
       <r>    17.5159    -0.0766    12.9032 </r>
       <r>    17.6323     0.0080    12.9042 </r>
       <r>    17.7488    -0.0195    12.9019 </r>
       <r>    17.8653     0.2393    12.9298 </r>
       <r>    17.9817     0.2066    12.9538 </r>
       <r>    18.0982    -0.0168    12.9519 </r>
       <r>    18.2146     0.0012    12.9520 </r>
       <r>    18.3311     0.0000    12.9520 </r>
       <r>    18.4475     0.0000    12.9520 </r>
       <r>    18.5640     0.0000    12.9520 </r>
       <r>    18.6804     0.0000    12.9520 </r>
       <r>    18.7969     0.0000    12.9520 </r>
       <r>    18.9133     0.0000    12.9520 </r>
       <r>    19.0298     0.0000    12.9520 </r>
       <r>    19.1462     0.0000    12.9520 </r>
       <r>    19.2627     0.0000    12.9520 </r>
       <r>    19.3791     0.0000    12.9520 </r>
       <r>    19.4956     0.0000    12.9520 </r>
       <r>    19.6120     0.0000    12.9520 </r>
       <r>    19.7285     0.0000    12.9520 </r>
       <r>    19.8449     0.0000    12.9520 </r>
       <r>    19.9614     0.0000    12.9520 </r>
       <r>    20.0778     0.0000    12.9520 </r>
       <r>    20.1943     0.0000    12.9520 </r>
       <r>    20.3107     0.0000    12.9520 </r>
       <r>    20.4272     0.0000    12.9520 </r>
       <r>    20.5436     0.0000    12.9520 </r>
       <r>    20.6601     0.0000    12.9520 </r>
       <r>    20.7765     0.0000    12.9520 </r>
       <r>    20.8930     0.0000    12.9520 </r>
       <r>    21.0094     0.0000    12.9520 </r>
       <r>    21.1259     0.0000    12.9520 </r>
       <r>    21.2423     0.0000    12.9520 </r>
       <r>    21.3588     0.0018    12.9522 </r>
       <r>    21.4752    -0.0230    12.9495 </r>
       <r>    21.5917     0.3030    12.9848 </r>
       <r>    21.7081     0.1404    13.0012 </r>
       <r>    21.8246    -0.0108    12.9999 </r>
       <r>    21.9410     0.0008    13.0000 </r>
       <r>    22.0575     0.0000    13.0000 </r>
       <r>    22.1739     0.0000    13.0000 </r>
       <r>    22.2904     0.0000    13.0000 </r>
       <r>    22.4068     0.0000    13.0000 </r>
       <r>    22.5233     0.0000    13.0000 </r>
       <r>    22.6397     0.0000    13.0000 </r>
       <r>    22.7562     0.0000    13.0000 </r>
       <r>    22.8726     0.0000    13.0000 </r>
       <r>    22.9891     0.0000    13.0000 </r>
       <r>    23.1055     0.0000    13.0000 </r>
       <r>    23.2220     0.0000    13.0000 </r>
       <r>    23.3384     0.0000    13.0000 </r>
       <r>    23.4549     0.0000    13.0000 </r>
       <r>    23.5713     0.0000    13.0000 </r>
       <r>    23.6878     0.0000    13.0000 </r>
       <r>    23.8042     0.0000    13.0000 </r>
       <r>    23.9207     0.0000    13.0000 </r>
       <r>    24.0372     0.0000    13.0000 </r>
       <r>    24.1536     0.0000    13.0000 </r>
       <r>    24.2701     0.0000    13.0000 </r>
       <r>    24.3865     0.0000    13.0000 </r>
       <r>    24.5030     0.0000    13.0000 </r>
       <r>    24.6194     0.0000    13.0000 </r>
       <r>    24.7359     0.0000    13.0000 </r>
       <r>    24.8523     0.0000    13.0000 </r>
       <r>    24.9688     0.0000    13.0000 </r>
       <r>    25.0852     0.0000    13.0000 </r>
       <r>    25.2017     0.0000    13.0000 </r>
       <r>    25.3181     0.0000    13.0000 </r>
       <r>    25.4346     0.0000    13.0000 </r>
       <r>    25.5510     0.0000    13.0000 </r>
       <r>    25.6675     0.0000    13.0000 </r>
       <r>    25.7839     0.0000    13.0000 </r>
       <r>    25.9004     0.0000    13.0000 </r>
       <r>    26.0168     0.0000    13.0000 </r>
       <r>    26.1333     0.0000    13.0000 </r>
       <r>    26.2497     0.0000    13.0000 </r>
       <r>    26.3662     0.0000    13.0000 </r>
       <r>    26.4826     0.0000    13.0000 </r>
       <r>    26.5991     0.0000    13.0000 </r>
       <r>    26.7155     0.0000    13.0000 </r>
       <r>    26.8320     0.0000    13.0000 </r>
       <r>    26.9484     0.0000    13.0000 </r>
       <r>    27.0649     0.0000    13.0000 </r>
       <r>    27.1813     0.0000    13.0000 </r>
       <r>    27.2978     0.0000    13.0000 </r>
       <r>    27.4142     0.0000    13.0000 </r>
       <r>    27.5307     0.0000    13.0000 </r>
       <r>    27.6471     0.0000    13.0000 </r>
       <r>    27.7636     0.0000    13.0000 </r>
       <r>    27.8800     0.0000    13.0000 </r>
       <r>    27.9965     0.0000    13.0000 </r>
       <r>    28.1129     0.0000    13.0000 </r>
       <r>    28.2294     0.0000    13.0000 </r>
       <r>    28.3458     0.0000    13.0000 </r>
       <r>    28.4623     0.0000    13.0000 </r>
       <r>    28.5787     0.0000    13.0000 </r>
       <r>    28.6952     0.0000    13.0000 </r>
       <r>    28.8116     0.0000    13.0000 </r>
       <r>    28.9281     0.0000    13.0000 </r>
       <r>    29.0445     0.0000    13.0000 </r>
       <r>    29.1610     0.0000    13.0000 </r>
       <r>    29.2774     0.0000    13.0000 </r>
       <r>    29.3939     0.0000    13.0000 </r>
       <r>    29.5103     0.0000    13.0000 </r>
       <r>    29.6268     0.0000    13.0000 </r>
       <r>    29.7432     0.0000    13.0000 </r>
       <r>    29.8597     0.0000    13.0000 </r>
       <r>    29.9762     0.0000    13.0000 </r>
       <r>    30.0926     0.0000    13.0000 </r>
       <r>    30.2091     0.0000    13.0000 </r>
       <r>    30.3255     0.0000    13.0000 </r>
       <r>    30.4420     0.0000    13.0000 </r>
       <r>    30.5584     0.0000    13.0000 </r>
      </set>
     </set>
    </array>
   </total>
  </dos>
 </calculation>
 <structure name="finalpos" >
  <crystal>
   <varray name="basis" >
    <v>       2.82083897      -0.00000000      -0.00000000 </v>
    <v>      -0.00000000       2.82083897       0.00000000 </v>
    <v>      -0.00000000       0.00000000       2.82083897 </v>
   </varray>
   <i name="volume">     22.44578932 </i>
   <varray name="rec_basis" >
    <v>       0.35450446       0.00000000       0.00000000 </v>
    <v>       0.00000000       0.35450446      -0.00000000 </v>
    <v>       0.00000000      -0.00000000       0.35450446 </v>
   </varray>
  </crystal>
  <varray name="positions" >
   <v>      -0.00000000      -0.00000000      -0.00000000 </v>
   <v>       0.50000000       0.50000000       0.50000000 </v>
  </varray>
 </structure>
</modeling>
