<?xml version="1.0" encoding="ISO-8859-1"?>
<modeling>
 <generator>
  <i name="program" type="string">vasp </i>
  <i name="version" type="string">5.3.3  </i>
  <i name="subversion" type="string">18Dez12 (build Sep  7 2015 22:32:56) complex                          parallel </i>
  <i name="platform" type="string">LinuxIFC </i>
  <i name="date" type="string">2022 12 07 </i>
  <i name="time" type="string">14:00:15 </i>
 </generator>
 <incar>
  <i type="string" name="SYSTEM"> Crystal</i>
  <i type="int" name="ISTART">     0</i>
  <i type="string" name="PREC">normal</i>
  <i type="string" name="ALGO"> fast</i>
  <i type="int" name="NSIM">     4</i>
  <i type="int" name="ISPIN">     2</i>
  <i type="int" name="ICHARG">     2</i>
  <i type="int" name="NELMDL">   -10</i>
  <i type="int" name="NELMIN">     4</i>
  <i type="int" name="IBRION">     2</i>
  <i name="EDIFF">      0.00001000</i>
  <i name="EDIFFG">     -0.01000000</i>
  <i type="int" name="NSW">   300</i>
  <i name="ENCUT">    350.00000000</i>
  <i type="logical" name="LREAL"> F  </i>
  <i type="int" name="ISMEAR">     2</i>
  <i name="SIGMA">      0.10000000</i>
  <i type="logical" name="LWAVE"> F  </i>
  <i type="logical" name="LCHARG"> F  </i>
 </incar>
 <kpoints>
  <generation param="Gamma">
   <v type="int" name="divisions">       5        5        1 </v>
   <v name="usershift">      0.00000000       0.00000000       0.00000000 </v>
   <v name="genvec1">      0.20000000      -0.00000000       0.00000000 </v>
   <v name="genvec2">      0.00000000       0.20000000       0.00000000 </v>
   <v name="genvec3">      0.00000000       0.00000000       1.00000000 </v>
   <v name="shift">      0.00000000       0.00000000       0.00000000 </v>
  </generation>
  <varray name="kpointlist" >
   <v>       0.00000000       0.00000000       0.00000000 </v>
   <v>       0.20000000       0.00000000       0.00000000 </v>
   <v>       0.40000000       0.00000000       0.00000000 </v>
   <v>       0.00000000       0.20000000       0.00000000 </v>
   <v>       0.20000000       0.20000000       0.00000000 </v>
   <v>       0.40000000       0.20000000       0.00000000 </v>
   <v>      -0.40000000       0.20000000       0.00000000 </v>
   <v>      -0.20000000       0.20000000       0.00000000 </v>
   <v>       0.00000000       0.40000000       0.00000000 </v>
   <v>       0.20000000       0.40000000       0.00000000 </v>
   <v>       0.40000000       0.40000000       0.00000000 </v>
   <v>      -0.40000000       0.40000000       0.00000000 </v>
   <v>      -0.20000000       0.40000000       0.00000000 </v>
  </varray>
  <varray name="weights" >
   <v>       0.04000000 </v>
   <v>       0.08000000 </v>
   <v>       0.08000000 </v>
   <v>       0.08000000 </v>
   <v>       0.08000000 </v>
   <v>       0.08000000 </v>
   <v>       0.08000000 </v>
   <v>       0.08000000 </v>
   <v>       0.08000000 </v>
   <v>       0.08000000 </v>
   <v>       0.08000000 </v>
   <v>       0.08000000 </v>
   <v>       0.08000000 </v>
  </varray>
 </kpoints>
 <parameters>
  <separator name="general" >
   <i type="string" name="SYSTEM">Crystal</i>
   <i type="logical" name="LCOMPAT"> F  </i>
  </separator>
  <separator name="electronic" >
   <i type="string" name="PREC">normal</i>
   <i name="ENMAX">    350.00000000</i>
   <i name="ENAUG">    511.36800000</i>
   <i name="EDIFF">      0.00001000</i>
   <i type="int" name="IALGO">    68</i>
   <i type="int" name="IWAVPR">    11</i>
   <i type="int" name="NBANDS">    31</i>
   <i name="NELECT">     48.00000000</i>
   <i type="int" name="TURBO">     0</i>
   <i type="int" name="IRESTART">     0</i>
   <i type="int" name="NREBOOT">     0</i>
   <i type="int" name="NMIN">     0</i>
   <i name="EREF">      0.00000000</i>
   <separator name="electronic smearing" >
    <i type="int" name="ISMEAR">     2</i>
    <i name="SIGMA">      0.10000000</i>
    <i name="KSPACING">      0.50000000</i>
    <i type="logical" name="KGAMMA"> T  </i>
   </separator>
   <separator name="electronic projectors" >
    <i type="logical" name="LREAL"> F  </i>
    <v name="ROPT">      0.00000000</v>
    <i type="int" name="LMAXPAW">  -100</i>
    <i type="int" name="LMAXMIX">     2</i>
    <i type="logical" name="NLSPLINE"> F  </i>
   </separator>
   <separator name="electronic startup" >
    <i type="int" name="ISTART">     0</i>
    <i type="int" name="ICHARG">     2</i>
    <i type="int" name="INIWAV">     1</i>
   </separator>
   <separator name="electronic spin" >
    <i type="int" name="ISPIN">     2</i>
    <i type="logical" name="LNONCOLLINEAR"> F  </i>
    <v name="MAGMOM">      1.00000000      1.00000000      1.00000000      1.00000000      1.00000000      1.00000000</v>
    <i name="NUPDOWN">     -1.00000000</i>
    <i type="logical" name="LSORBIT"> F  </i>
    <v name="SAXIS">      0.00000000      0.00000000      1.00000000</v>
    <i type="logical" name="LSPIRAL"> F  </i>
    <v name="QSPIRAL">      0.00000000      0.00000000      0.00000000</v>
    <i type="logical" name="LZEROZ"> F  </i>
   </separator>
   <separator name="electronic exchange-correlation" >
    <i type="logical" name="LASPH"> F  </i>
    <i type="logical" name="LMETAGGA"> F  </i>
   </separator>
   <separator name="electronic convergence" >
    <i type="int" name="NELM">    60</i>
    <i type="int" name="NELMDL">   -10</i>
    <i type="int" name="NELMIN">     4</i>
    <i name="ENINI">    350.00000000</i>
    <separator name="electronic convergence detail" >
     <i type="logical" name="LDIAG"> T  </i>
     <i type="logical" name="LSUBROT"> T  </i>
     <i name="WEIMIN">      0.00100000</i>
     <i name="EBREAK">      0.00000008</i>
     <i name="DEPER">      0.30000000</i>
     <i type="int" name="NRMM">     4</i>
     <i name="TIME">      0.40000000</i>
    </separator>
   </separator>
   <separator name="electronic mixer" >
    <i name="AMIX">      0.40000000</i>
    <i name="BMIX">      1.00000000</i>
    <i name="AMIN">      0.10000000</i>
    <i name="AMIX_MAG">      1.60000000</i>
    <i name="BMIX_MAG">      1.00000000</i>
    <separator name="electronic mixer details" >
     <i type="int" name="IMIX">     4</i>
     <i type="int" name="MAXMIX">   -45</i>
     <i name="WC">    100.00000000</i>
     <i type="int" name="INIMIX">     1</i>
     <i type="int" name="MIXPRE">     1</i>
     <i type="int" name="MREMOVE">     5</i>
    </separator>
   </separator>
   <separator name="electronic dipolcorrection" >
    <i type="logical" name="LDIPOL"> F  </i>
    <i type="logical" name="LMONO"> F  </i>
    <i type="int" name="IDIPOL">     0</i>
    <i name="EPSILON">      1.00000000</i>
    <v name="DIPOL">   -100.00000000   -100.00000000   -100.00000000</v>
    <i name="EFIELD">      0.00000000</i>
   </separator>
  </separator>
  <separator name="grids" >
   <i type="int" name="NGX">    18</i>
   <i type="int" name="NGY">    18</i>
   <i type="int" name="NGZ">    84</i>
   <i type="int" name="NGXF">    36</i>
   <i type="int" name="NGYF">    36</i>
   <i type="int" name="NGZF">   168</i>
   <i type="logical" name="ADDGRID"> F  </i>
  </separator>
  <separator name="ionic" >
   <i type="int" name="NSW">   300</i>
   <i type="int" name="IBRION">     2</i>
   <i type="int" name="ISIF">     2</i>
   <i name="PSTRESS">      0.00000000</i>
   <i name="EDIFFG">     -0.01000000</i>
   <i type="int" name="NFREE">     1</i>
   <i name="POTIM">      0.50000000</i>
   <i name="SMASS">     -3.00000000</i>
   <i name="SCALEE">      1.00000000</i>
  </separator>
  <separator name="ionic md" >
   <i name="TEBEG">      0.00010000</i>
   <i name="TEEND">      0.00010000</i>
   <i type="int" name="NBLOCK">     1</i>
   <i type="int" name="KBLOCK">   300</i>
   <i type="int" name="NPACO">   256</i>
   <i name="APACO">     16.00000000</i>
  </separator>
  <separator name="symmetry" >
   <i type="int" name="ISYM">     2</i>
   <i name="SYMPREC">      0.00001000</i>
  </separator>
  <separator name="dos" >
   <i type="logical" name="LORBIT"> F  </i>
   <v name="RWIGS">     -1.00000000</v>
   <i type="int" name="NEDOS">   301</i>
   <i name="EMIN">     10.00000000</i>
   <i name="EMAX">    -10.00000000</i>
   <i name="EFERMI">      0.00000000</i>
  </separator>
  <separator name="writing" >
   <i type="int" name="NWRITE">     2</i>
   <i type="logical" name="LWAVE"> F  </i>
   <i type="logical" name="LCHARG"> F  </i>
   <i type="logical" name="LPARD"> F  </i>
   <i type="logical" name="LVTOT"> F  </i>
   <i type="logical" name="LVHAR"> F  </i>
   <i type="logical" name="LELF"> F  </i>
   <i type="logical" name="LOPTICS"> F  </i>
   <v name="STM">      0.00000000      0.00000000      0.00000000      0.00000000      0.00000000      0.00000000      0.00000000</v>
  </separator>
  <separator name="performance" >
   <i type="int" name="NPAR">     1</i>
   <i type="int" name="NSIM">     4</i>
   <i type="int" name="NBLK">    -1</i>
   <i type="logical" name="LPLANE"> T  </i>
   <i type="logical" name="LSCALAPACK"> F  </i>
   <i type="logical" name="LSCAAWARE"> F  </i>
   <i type="logical" name="LSCALU"> F  </i>
   <i type="logical" name="LASYNC"> F  </i>
   <i type="logical" name="LORBITALREAL"> F  </i>
  </separator>
  <separator name="miscellaneous" >
   <i type="int" name="IDIOT">     3</i>
   <i type="logical" name="LMUSIC"> F  </i>
   <v name="POMASS">     55.84700000</v>
   <v name="DARWINR">      0.00000000</v>
   <v name="DARWINV">      1.00000000</v>
   <i type="logical" name="LCORR"> T  </i>
  </separator>
  <i type="logical" name="GGA_COMPAT"> T  </i>
  <i type="logical" name="LBERRY"> F  </i>
  <i type="int" name="ICORELEVEL">     0</i>
  <i type="logical" name="LDAU"> F  </i>
  <i type="int" name="I_CONSTRAINED_M">     0</i>
  <separator name="electronic exchange-correlation" >
   <i type="string" name="GGA">--</i>
   <i type="int" name="VOSKOWN">     0</i>
   <i type="logical" name="LHFCALC"> F  </i>
   <i type="string" name="PRECFOCK"></i>
   <i type="logical" name="LSYMGRAD"> F  </i>
   <i type="logical" name="LHFONE"> F  </i>
   <i type="logical" name="LRHFCALC"> F  </i>
   <i type="logical" name="LTHOMAS"> F  </i>
   <i type="logical" name="LMODELHF"> F  </i>
   <i name="ENCUT4O">     -1.00000000</i>
   <i type="int" name="EXXOEP">     0</i>
   <i type="int" name="FOURORBIT">     0</i>
   <i name="AEXX">      0.00000000</i>
   <i name="HFALPHA">      0.00000000</i>
   <i name="MCALPHA">      0.00000000</i>
   <i name="ALDAX">      1.00000000</i>
   <i name="AGGAX">      1.00000000</i>
   <i name="ALDAC">      1.00000000</i>
   <i name="AGGAC">      1.00000000</i>
   <i type="int" name="NKREDX">     1</i>
   <i type="int" name="NKREDY">     1</i>
   <i type="int" name="NKREDZ">     1</i>
   <i type="logical" name="SHIFTRED"> F  </i>
   <i type="logical" name="ODDONLY"> F  </i>
   <i type="logical" name="EVENONLY"> F  </i>
   <i type="int" name="LMAXFOCK">     0</i>
   <i type="int" name="NMAXFOCKAE">     0</i>
   <i type="logical" name="LFOCKAEDFT"> F  </i>
   <i name="HFSCREEN">      0.00000000</i>
   <i name="HFSCREENC">      0.00000000</i>
   <i type="int" name="NBANDSGWLOW">     0</i>
  </separator>
  <separator name="vdW DFT" >
   <i type="logical" name="LUSE_VDW"> F  </i>
   <i name="Zab_VDW">     -0.84910000</i>
   <i name="PARAM1">      0.12340000</i>
   <i name="PARAM2">      1.00000000</i>
   <i name="PARAM3">      0.00000000</i>
  </separator>
  <separator name="model GW" >
   <i type="int" name="MODEL_GW">     0</i>
   <i name="MODEL_EPS0">     24.77361164</i>
   <i name="MODEL_ALPHA">      1.00000000</i>
  </separator>
  <separator name="linear response parameters" >
   <i type="logical" name="LEPSILON"> F  </i>
   <i type="logical" name="LRPA"> F  </i>
   <i type="logical" name="LNABLA"> F  </i>
   <i type="logical" name="LVEL"> F  </i>
   <i type="int" name="KINTER">     0</i>
   <i name="CSHIFT">      0.10000000</i>
   <i name="OMEGAMAX">     -1.00000000</i>
   <i name="DEG_THRESHOLD">      0.00200000</i>
  </separator>
  <separator name="orbital magnetization" >
   <i type="logical" name="NUCIND"> F  </i>
   <v name="MAGPOS">      0.00000000      0.00000000      0.00000000</v>
   <i type="logical" name="LNICSALL"> T  </i>
   <i type="logical" name="ORBITALMAG"> F  </i>
   <i type="logical" name="LMAGBLOCH"> F  </i>
   <i type="logical" name="LCHIMAG"> F  </i>
   <i type="logical" name="LGAUGE"> T  </i>
   <i type="int" name="MAGATOM">     0</i>
   <v name="MAGDIPOL">      0.00000000      0.00000000      0.00000000</v>
   <v name="AVECCONST">      0.00000000      0.00000000      0.00000000</v>
  </separator>
  <separator name="response functions" >
   <i type="logical" name="LADDER"> F  </i>
   <i type="logical" name="LFXC"> F  </i>
   <i type="logical" name="LHARTREE"> T  </i>
   <i type="int" name="IBSE">     0</i>
   <i type="logical" name="LTCTE"> F  </i>
   <i type="logical" name="LTETE"> F  </i>
   <i type="logical" name="LTRIPLET"> F  </i>
   <i type="logical" name="LFXCEPS"> F  </i>
   <i type="logical" name="L2ORDER"> F  </i>
   <i type="logical" name="LUSEW"> F  </i>
   <i name="ENCUTGW">     -2.00000000</i>
   <i name="ENCUTGWSOFT">     -2.00000000</i>
   <i name="ENCUTLF">     -1.00000000</i>
   <i type="int" name="LMAXMP2">    -1</i>
   <i name="SCISSOR">      0.00000000</i>
   <i type="int" name="NOMEGA">     0</i>
   <i type="int" name="NOMEGAR">     0</i>
   <i type="int" name="NBANDSGW">    -1</i>
   <i type="int" name="NBANDSO">    -1</i>
   <i type="int" name="NBANDSV">    -1</i>
   <i type="int" name="NELM">     1</i>
   <i type="int" name="DIM">     3</i>
   <i type="int" name="ANTIRES">     0</i>
   <i name="OMEGAMAX">    -30.00000000</i>
   <i name="OMEGATL">   -200.00000000</i>
   <i type="int" name="OMEGAGRID">     0</i>
   <i name="CSHIFT">     -0.10000000</i>
   <i type="logical" name="SELFENERGY"> F  </i>
   <i type="logical" name="LSPECTRAL"> F  </i>
   <i type="logical" name="ODDONLYGW"> F  </i>
   <i type="logical" name="EVENONLYGW"> F  </i>
   <i type="int" name="NKREDLFX">     1</i>
   <i type="int" name="NKREDLFY">     1</i>
   <i type="int" name="NKREDLFZ">     1</i>
   <i type="int" name="MAXMEM">  1800</i>
   <i type="int" name="TELESCOPE">     0</i>
  </separator>
 </parameters>
 <atominfo>
  <atoms>       6 </atoms>
  <types>       1 </types>
  <array name="atoms" >
   <dimension dim="1">ion</dimension>
   <field type="string">element</field>
   <field type="int">atomtype</field>
   <set>
    <rc><c>Fe</c><c>   1</c></rc>
    <rc><c>Fe</c><c>   1</c></rc>
    <rc><c>Fe</c><c>   1</c></rc>
    <rc><c>Fe</c><c>   1</c></rc>
    <rc><c>Fe</c><c>   1</c></rc>
    <rc><c>Fe</c><c>   1</c></rc>
   </set>
  </array>
  <array name="atomtypes" >
   <dimension dim="1">type</dimension>
   <field type="int">atomspertype</field>
   <field type="string">element</field>
   <field>mass</field>
   <field>valence</field>
   <field type="string">pseudopotential</field>
   <set>
    <rc><c>   6</c><c>Fe</c><c>     55.84700000</c><c>      8.00000000</c><c>  PAW_PBE Fe 06Sep2000                  </c></rc>
   </set>
  </array>
 </atominfo>
 <structure name="initialpos" >
  <crystal>
   <varray name="basis" >
    <v>       3.98651217       0.00000000       0.00000000 </v>
    <v>       1.99325608       3.45242081       0.00000000 </v>
    <v>       0.00000000       0.00000000      18.00000000 </v>
   </varray>
   <i name="volume">    247.73611635 </i>
   <varray name="rec_basis" >
    <v>       0.25084584      -0.14482591       0.00000000 </v>
    <v>       0.00000000       0.28965183       0.00000000 </v>
    <v>       0.00000000       0.00000000       0.05555556 </v>
   </varray>
  </crystal>
  <varray name="positions" >
   <v>       0.00000000       0.00000000       0.00000000 </v>
   <v>       0.33344853       0.33347615       0.04522778 </v>
   <v>       0.66692468       0.66652385       0.09045000 </v>
   <v>       0.00039830       0.00000000       0.13567778 </v>
   <v>       0.33385997       0.33307667       0.18090556 </v>
   <v>       0.66732298       0.66652385       0.22612778 </v>
  </varray>
  <varray name="selective"  type="logical" >
   <v type="logical" >  F  F  F </v>
   <v type="logical" >  F  F  F </v>
   <v type="logical" >  T  T  T </v>
   <v type="logical" >  T  T  T </v>
   <v type="logical" >  T  T  T </v>
   <v type="logical" >  T  T  T </v>
  </varray>
  <nose>
   <v>      -3.00000000       0.00000000       0.00010000       0.00010000 </v>
  </nose>
 </structure>
 <calculation>
  <scstep>
   <time name="dav">   21.08   21.11</time>
   <time name="total">   21.50   21.54</time>
   <energy>
    <i name="alphaZ">    100.43331480 </i>
    <i name="ewald">   8759.37681812 </i>
    <i name="hartreedc"> -12272.89080727 </i>
    <i name="XCdc">     20.76515705 </i>
    <i name="pawpsdc">   3328.36036734 </i>
    <i name="pawaedc">  -3374.58551447 </i>
    <i name="eentropy">      0.00213258 </i>
    <i name="bandstr">    184.33211874 </i>
    <i name="atom">   3565.76896863 </i>
    <i name="e_fr_energy">    311.56255551 </i>
    <i name="e_wo_entrp">    311.56042293 </i>
    <i name="e_0_energy">    311.56202236 </i>
   </energy>
  </scstep>
  <scstep>
   <time name="dav">   21.10   21.13</time>
   <time name="total">   21.12   21.14</time>
   <energy>
    <i name="e_fr_energy">    -22.74989312 </i>
    <i name="e_wo_entrp">    -22.74953711 </i>
    <i name="e_0_energy">    -22.74980412 </i>
   </energy>
  </scstep>
  <scstep>
   <time name="dav">   30.71   30.75</time>
   <time name="total">   30.72   30.76</time>
   <energy>
    <i name="e_fr_energy">    -47.88120575 </i>
    <i name="e_wo_entrp">    -47.88074795 </i>
    <i name="e_0_energy">    -47.88109130 </i>
   </energy>
  </scstep>
  <scstep>
   <time name="dav">   27.70   27.74</time>
   <time name="total">   27.71   27.75</time>
   <energy>
    <i name="e_fr_energy">    -49.98115609 </i>
    <i name="e_wo_entrp">    -49.98688464 </i>
    <i name="e_0_energy">    -49.98258823 </i>
   </energy>
  </scstep>
  <scstep>
   <time name="dav">   29.91   29.95</time>
   <time name="total">   29.92   29.96</time>
   <energy>
    <i name="e_fr_energy">    -50.14138616 </i>
    <i name="e_wo_entrp">    -50.14623875 </i>
    <i name="e_0_energy">    -50.14259931 </i>
   </energy>
  </scstep>
  <scstep>
   <time name="dav">   28.86   28.90</time>
   <time name="total">   28.87   28.91</time>
   <energy>
    <i name="e_fr_energy">    -50.15819257 </i>
    <i name="e_wo_entrp">    -50.16296275 </i>
    <i name="e_0_energy">    -50.15938512 </i>
   </energy>
  </scstep>
  <scstep>
   <time name="dav">   29.97   30.01</time>
   <time name="total">   29.98   30.02</time>
   <energy>
    <i name="e_fr_energy">    -50.15959375 </i>
    <i name="e_wo_entrp">    -50.16408261 </i>
    <i name="e_0_energy">    -50.16071597 </i>
   </energy>
  </scstep>
  <scstep>
   <time name="dav">   24.78   24.82</time>
   <time name="total">   24.79   24.83</time>
   <energy>
    <i name="e_fr_energy">    -50.15978131 </i>
    <i name="e_wo_entrp">    -50.16414883 </i>
    <i name="e_0_energy">    -50.16087319 </i>
   </energy>
  </scstep>
  <scstep>
   <time name="dav">   21.43   21.46</time>
   <time name="total">   21.44   21.46</time>
   <energy>
    <i name="e_fr_energy">    -50.15981078 </i>
    <i name="e_wo_entrp">    -50.16414670 </i>
    <i name="e_0_energy">    -50.16089476 </i>
   </energy>
  </scstep>
  <scstep>
   <time name="dav">   18.72   18.74</time>
   <time name="total">   21.31   21.34</time>
   <energy>
    <i name="e_fr_energy">    -50.15981506 </i>
    <i name="e_wo_entrp">    -50.16414205 </i>
    <i name="e_0_energy">    -50.16089681 </i>
   </energy>
  </scstep>
  <scstep>
   <time name="diag">    5.22    5.23</time>
   <time name="diis">   22.86   22.89</time>
   <time name="orth">    0.33    0.33</time>
   <time name="total">   31.62   31.67</time>
   <energy>
    <i name="e_fr_energy">    -96.49800129 </i>
    <i name="e_wo_entrp">    -96.49811411 </i>
    <i name="e_0_energy">    -96.49802949 </i>
   </energy>
  </scstep>
  <scstep>
   <time name="diag">    5.21    5.22</time>
   <time name="diis">   16.65   16.67</time>
   <time name="orth">    0.32    0.33</time>
   <time name="total">   25.39   25.43</time>
   <energy>
    <i name="e_fr_energy">    -57.56892782 </i>
    <i name="e_wo_entrp">    -57.55719074 </i>
    <i name="e_0_energy">    -57.56599355 </i>
   </energy>
  </scstep>
  <scstep>
   <time name="diag">    5.21    5.22</time>
   <time name="diis">   16.98   17.01</time>
   <time name="orth">    0.33    0.33</time>
   <time name="total">   25.73   25.77</time>
   <energy>
    <i name="e_fr_energy">    -58.86812058 </i>
    <i name="e_wo_entrp">    -58.87472775 </i>
    <i name="e_0_energy">    -58.86977237 </i>
   </energy>
  </scstep>
  <scstep>
   <time name="diag">    5.22    5.23</time>
   <time name="diis">   17.68   17.71</time>
   <time name="orth">    0.33    0.33</time>
   <time name="total">   26.45   26.48</time>
   <energy>
    <i name="e_fr_energy">    -51.37972552 </i>
    <i name="e_wo_entrp">    -51.38418456 </i>
    <i name="e_0_energy">    -51.38084028 </i>
   </energy>
  </scstep>
  <scstep>
   <time name="diag">    5.20    5.21</time>
   <time name="diis">   16.54   16.56</time>
   <time name="orth">    0.32    0.32</time>
   <time name="total">   25.26   25.29</time>
   <energy>
    <i name="e_fr_energy">    -43.66851858 </i>
    <i name="e_wo_entrp">    -43.67102592 </i>
    <i name="e_0_energy">    -43.66914542 </i>
   </energy>
  </scstep>
  <scstep>
   <time name="diag">    5.21    5.22</time>
   <time name="diis">   18.13   18.15</time>
   <time name="orth">    0.33    0.33</time>
   <time name="total">   26.88   26.92</time>
   <energy>
    <i name="e_fr_energy">    -42.37648272 </i>
    <i name="e_wo_entrp">    -42.37930629 </i>
    <i name="e_0_energy">    -42.37718861 </i>
   </energy>
  </scstep>
  <scstep>
   <time name="diag">    5.19    5.20</time>
   <time name="diis">   21.70   21.73</time>
   <time name="orth">    0.32    0.33</time>
   <time name="total">   30.42   30.47</time>
   <energy>
    <i name="e_fr_energy">    -42.53783878 </i>
    <i name="e_wo_entrp">    -42.53822420 </i>
    <i name="e_0_energy">    -42.53793514 </i>
   </energy>
  </scstep>
  <scstep>
   <time name="diag">    5.21    5.22</time>
   <time name="diis">   18.22   18.25</time>
   <time name="orth">    0.15    0.15</time>
   <time name="total">   25.98   26.01</time>
   <energy>
    <i name="e_fr_energy">    -42.52308883 </i>
    <i name="e_wo_entrp">    -42.52348783 </i>
    <i name="e_0_energy">    -42.52318858 </i>
   </energy>
  </scstep>
  <scstep>
   <time name="diag">    3.53    3.53</time>
   <time name="diis">   12.72   12.74</time>
   <time name="orth">    0.15    0.15</time>
   <time name="total">   18.61   18.63</time>
   <energy>
    <i name="e_fr_energy">    -42.54244923 </i>
    <i name="e_wo_entrp">    -42.54451121 </i>
    <i name="e_0_energy">    -42.54296473 </i>
   </energy>
  </scstep>
  <scstep>
   <time name="diag">    3.54    3.54</time>
   <time name="diis">   11.60   11.61</time>
   <time name="orth">    0.15    0.15</time>
   <time name="total">   17.50   17.52</time>
   <energy>
    <i name="e_fr_energy">    -42.49060609 </i>
    <i name="e_wo_entrp">    -42.49431379 </i>
    <i name="e_0_energy">    -42.49153302 </i>
   </energy>
  </scstep>
  <scstep>
   <time name="diag">    3.54    3.55</time>
   <time name="diis">   12.06   12.07</time>
   <time name="orth">    0.15    0.15</time>
   <time name="total">   17.96   17.99</time>
   <energy>
    <i name="e_fr_energy">    -42.44825119 </i>
    <i name="e_wo_entrp">    -42.45340824 </i>
    <i name="e_0_energy">    -42.44954045 </i>
   </energy>
  </scstep>
  <scstep>
   <time name="diag">    3.53    3.54</time>
   <time name="diis">   13.34   13.36</time>
   <time name="orth">    0.15    0.15</time>
   <time name="total">   19.24   19.26</time>
   <energy>
    <i name="e_fr_energy">    -42.36190911 </i>
    <i name="e_wo_entrp">    -42.36164366 </i>
    <i name="e_0_energy">    -42.36184275 </i>
   </energy>
  </scstep>
  <scstep>
   <time name="diag">    3.53    3.53</time>
   <time name="diis">   11.81   11.83</time>
   <time name="orth">    0.15    0.15</time>
   <time name="total">   17.70   17.73</time>
   <energy>
    <i name="e_fr_energy">    -42.56272269 </i>
    <i name="e_wo_entrp">    -42.56907427 </i>
    <i name="e_0_energy">    -42.56431059 </i>
   </energy>
  </scstep>
  <scstep>
   <time name="diag">    3.54    3.55</time>
   <time name="diis">   15.27   15.29</time>
   <time name="orth">    0.15    0.15</time>
   <time name="total">   21.18   21.21</time>
   <energy>
    <i name="e_fr_energy">    -42.57215763 </i>
    <i name="e_wo_entrp">    -42.57835252 </i>
    <i name="e_0_energy">    -42.57370635 </i>
   </energy>
  </scstep>
  <scstep>
   <time name="diag">    3.54    3.54</time>
   <time name="diis">   12.23   12.25</time>
   <time name="orth">    0.15    0.15</time>
   <time name="total">   18.14   18.16</time>
   <energy>
    <i name="e_fr_energy">    -42.62829137 </i>
    <i name="e_wo_entrp">    -42.63329007 </i>
    <i name="e_0_energy">    -42.62954105 </i>
   </energy>
  </scstep>
  <scstep>
   <time name="diag">    3.53    3.53</time>
   <time name="diis">   15.28   15.31</time>
   <time name="orth">    0.15    0.15</time>
   <time name="total">   21.18   21.21</time>
   <energy>
    <i name="e_fr_energy">    -42.62455103 </i>
    <i name="e_wo_entrp">    -42.62969862 </i>
    <i name="e_0_energy">    -42.62583793 </i>
   </energy>
  </scstep>
  <scstep>
   <time name="diag">    3.52    3.53</time>
   <time name="diis">   12.33   12.35</time>
   <time name="orth">    0.15    0.15</time>
   <time name="total">   18.23   18.25</time>
   <energy>
    <i name="e_fr_energy">    -42.55220175 </i>
    <i name="e_wo_entrp">    -42.55777965 </i>
    <i name="e_0_energy">    -42.55359623 </i>
   </energy>
  </scstep>
  <scstep>
   <time name="diag">    3.53    3.53</time>
   <time name="diis">   15.29   15.31</time>
   <time name="orth">    0.15    0.15</time>
   <time name="total">   21.18   21.21</time>
   <energy>
    <i name="e_fr_energy">    -42.52203596 </i>
    <i name="e_wo_entrp">    -42.52830669 </i>
    <i name="e_0_energy">    -42.52360364 </i>
   </energy>
  </scstep>
  <scstep>
   <time name="diag">    3.53    3.53</time>
   <time name="diis">   11.88   11.90</time>
   <time name="orth">    0.15    0.15</time>
   <time name="total">   17.78   17.80</time>
   <energy>
    <i name="e_fr_energy">    -42.59454908 </i>
    <i name="e_wo_entrp">    -42.59843261 </i>
    <i name="e_0_energy">    -42.59551996 </i>
   </energy>
  </scstep>
  <scstep>
   <time name="diag">    3.52    3.53</time>
   <time name="diis">   12.86   12.88</time>
   <time name="orth">    0.15    0.15</time>
   <time name="total">   18.76   18.79</time>
   <energy>
    <i name="e_fr_energy">    -42.34599695 </i>
    <i name="e_wo_entrp">    -42.34247719 </i>
    <i name="e_0_energy">    -42.34511701 </i>
   </energy>
  </scstep>
  <scstep>
   <time name="diag">    3.52    3.53</time>
   <time name="diis">   15.38   15.40</time>
   <time name="orth">    0.15    0.15</time>
   <time name="total">   21.27   21.30</time>
   <energy>
    <i name="e_fr_energy">    -42.44658133 </i>
    <i name="e_wo_entrp">    -42.44322524 </i>
    <i name="e_0_energy">    -42.44574231 </i>
   </energy>
  </scstep>
  <scstep>
   <time name="diag">    3.53    3.53</time>
   <time name="diis">   13.48   13.50</time>
   <time name="orth">    0.15    0.15</time>
   <time name="total">   19.38   19.40</time>
   <energy>
    <i name="e_fr_energy">    -42.44117298 </i>
    <i name="e_wo_entrp">    -42.43776442 </i>
    <i name="e_0_energy">    -42.44032084 </i>
   </energy>
  </scstep>
  <scstep>
   <time name="diag">    3.53    3.54</time>
   <time name="diis">   13.57   13.59</time>
   <time name="orth">    0.15    0.15</time>
   <time name="total">   19.48   19.51</time>
   <energy>
    <i name="e_fr_energy">    -42.42974319 </i>
    <i name="e_wo_entrp">    -42.43104507 </i>
    <i name="e_0_energy">    -42.43006866 </i>
   </energy>
  </scstep>
  <scstep>
   <time name="diag">    3.54    3.54</time>
   <time name="diis">   12.56   12.58</time>
   <time name="orth">    0.15    0.15</time>
   <time name="total">   18.48   18.50</time>
   <energy>
    <i name="e_fr_energy">    -42.67234768 </i>
    <i name="e_wo_entrp">    -42.67442527 </i>
    <i name="e_0_energy">    -42.67286708 </i>
   </energy>
  </scstep>
  <scstep>
   <time name="diag">    3.54    3.55</time>
   <time name="diis">   14.13   14.15</time>
   <time name="orth">    0.15    0.15</time>
   <time name="total">   20.06   20.09</time>
   <energy>
    <i name="e_fr_energy">    -42.81900123 </i>
    <i name="e_wo_entrp">    -42.82518402 </i>
    <i name="e_0_energy">    -42.82054693 </i>
   </energy>
  </scstep>
  <scstep>
   <time name="diag">    3.55    3.55</time>
   <time name="diis">   15.10   15.12</time>
   <time name="orth">    0.15    0.15</time>
   <time name="total">   21.04   21.06</time>
   <energy>
    <i name="e_fr_energy">    -42.91365056 </i>
    <i name="e_wo_entrp">    -42.92045507 </i>
    <i name="e_0_energy">    -42.91535169 </i>
   </energy>
  </scstep>
  <scstep>
   <time name="diag">    3.54    3.55</time>
   <time name="diis">   12.20   12.22</time>
   <time name="orth">    0.15    0.15</time>
   <time name="total">   18.12   18.15</time>
   <energy>
    <i name="e_fr_energy">    -42.82116060 </i>
    <i name="e_wo_entrp">    -42.82576563 </i>
    <i name="e_0_energy">    -42.82231185 </i>
   </energy>
  </scstep>
  <scstep>
   <time name="diag">    3.54    3.54</time>
   <time name="diis">   11.88   11.90</time>
   <time name="orth">    0.15    0.15</time>
   <time name="total">   17.80   17.83</time>
   <energy>
    <i name="e_fr_energy">    -42.80617480 </i>
    <i name="e_wo_entrp">    -42.80612303 </i>
    <i name="e_0_energy">    -42.80616186 </i>
   </energy>
  </scstep>
  <scstep>
   <time name="diag">    3.53    3.54</time>
   <time name="diis">   13.14   13.15</time>
   <time name="orth">    0.15    0.15</time>
   <time name="total">   19.06   19.09</time>
   <energy>
    <i name="e_fr_energy">    -42.82063836 </i>
    <i name="e_wo_entrp">    -42.81324402 </i>
    <i name="e_0_energy">    -42.81878977 </i>
   </energy>
  </scstep>
  <scstep>
   <time name="diag">    3.54    3.54</time>
   <time name="diis">   14.76   14.78</time>
   <time name="orth">    0.15    0.15</time>
   <time name="total">   20.70   20.72</time>
   <energy>
    <i name="e_fr_energy">    -42.88642782 </i>
    <i name="e_wo_entrp">    -42.88024907 </i>
    <i name="e_0_energy">    -42.88488313 </i>
   </energy>
  </scstep>
  <scstep>
   <time name="diag">    3.54    3.54</time>
   <time name="diis">   11.71   11.73</time>
   <time name="orth">    0.15    0.15</time>
   <time name="total">   17.65   17.67</time>
   <energy>
    <i name="e_fr_energy">    -42.67514915 </i>
    <i name="e_wo_entrp">    -42.66709228 </i>
    <i name="e_0_energy">    -42.67313493 </i>
   </energy>
  </scstep>
  <scstep>
   <time name="diag">    3.54    3.55</time>
   <time name="diis">   12.98   13.01</time>
   <time name="orth">    0.15    0.15</time>
   <time name="total">   18.93   18.96</time>
   <energy>
    <i name="e_fr_energy">    -42.57148806 </i>
    <i name="e_wo_entrp">    -42.57314530 </i>
    <i name="e_0_energy">    -42.57190237 </i>
   </energy>
  </scstep>
  <scstep>
   <time name="diag">    3.53    3.54</time>
   <time name="diis">   14.64   14.66</time>
   <time name="orth">    0.15    0.15</time>
   <time name="total">   20.57   20.60</time>
   <energy>
    <i name="e_fr_energy">    -42.60630665 </i>
    <i name="e_wo_entrp">    -42.60503450 </i>
    <i name="e_0_energy">    -42.60598861 </i>
   </energy>
  </scstep>
  <scstep>
   <time name="diag">    3.52    3.53</time>
   <time name="diis">   15.26   15.28</time>
   <time name="orth">    0.15    0.15</time>
   <time name="total">   21.19   21.22</time>
   <energy>
    <i name="e_fr_energy">    -42.60267965 </i>
    <i name="e_wo_entrp">    -42.60153740 </i>
    <i name="e_0_energy">    -42.60239408 </i>
   </energy>
  </scstep>
  <scstep>
   <time name="diag">    3.52    3.52</time>
   <time name="diis">   14.05   14.07</time>
   <time name="orth">    0.15    0.15</time>
   <time name="total">   19.97   19.99</time>
   <energy>
    <i name="e_fr_energy">    -42.60720628 </i>
    <i name="e_wo_entrp">    -42.60454078 </i>
    <i name="e_0_energy">    -42.60653990 </i>
   </energy>
  </scstep>
  <scstep>
   <time name="diag">    3.52    3.52</time>
   <time name="diis">   13.67   13.69</time>
   <time name="orth">    0.15    0.15</time>
   <time name="total">   19.59   19.61</time>
   <energy>
    <i name="e_fr_energy">    -42.61361927 </i>
    <i name="e_wo_entrp">    -42.61108227 </i>
    <i name="e_0_energy">    -42.61298502 </i>
   </energy>
  </scstep>
  <scstep>
   <time name="diag">    3.53    3.53</time>
   <time name="diis">   13.97   13.99</time>
   <time name="orth">    0.15    0.15</time>
   <time name="total">   19.90   19.93</time>
   <energy>
    <i name="e_fr_energy">    -42.62343714 </i>
    <i name="e_wo_entrp">    -42.62040653 </i>
    <i name="e_0_energy">    -42.62267949 </i>
   </energy>
  </scstep>
  <scstep>
   <time name="diag">    3.54    3.54</time>
   <time name="diis">   15.15   15.18</time>
   <time name="orth">    0.15    0.15</time>
   <time name="total">   21.10   21.13</time>
   <energy>
    <i name="e_fr_energy">    -42.62147938 </i>
    <i name="e_wo_entrp">    -42.61828831 </i>
    <i name="e_0_energy">    -42.62068161 </i>
   </energy>
  </scstep>
  <scstep>
   <time name="diag">    3.54    3.54</time>
   <time name="diis">   11.71   11.72</time>
   <time name="orth">    0.15    0.15</time>
   <time name="total">   17.66   17.69</time>
   <energy>
    <i name="e_fr_energy">    -42.63391396 </i>
    <i name="e_wo_entrp">    -42.63107711 </i>
    <i name="e_0_energy">    -42.63320475 </i>
   </energy>
  </scstep>
  <scstep>
   <time name="diag">    3.54    3.55</time>
   <time name="diis">   11.95   11.96</time>
   <time name="orth">    0.15    0.15</time>
   <time name="total">   17.91   17.93</time>
   <energy>
    <i name="e_fr_energy">    -42.65179292 </i>
    <i name="e_wo_entrp">    -42.65017081 </i>
    <i name="e_0_energy">    -42.65138739 </i>
   </energy>
  </scstep>
  <scstep>
   <time name="diag">    3.54    3.55</time>
   <time name="diis">   12.44   12.46</time>
   <time name="orth">    0.15    0.15</time>
   <time name="total">   18.41   18.43</time>
   <energy>
    <i name="e_fr_energy">    -42.67369468 </i>
    <i name="e_wo_entrp">    -42.67737598 </i>
    <i name="e_0_energy">    -42.67461500 </i>
   </energy>
  </scstep>
  <scstep>
   <time name="diag">    3.53    3.54</time>
   <time name="diis">   14.98   15.00</time>
   <time name="orth">    0.15    0.15</time>
   <time name="total">   20.94   20.97</time>
   <energy>
    <i name="e_fr_energy">    -42.67204057 </i>
    <i name="e_wo_entrp">    -42.67531042 </i>
    <i name="e_0_energy">    -42.67285803 </i>
   </energy>
  </scstep>
  <scstep>
   <time name="diag">    3.54    3.54</time>
   <time name="diis">   13.31   13.33</time>
   <time name="orth">    0.15    0.15</time>
   <time name="total">   19.28   19.30</time>
   <energy>
    <i name="e_fr_energy">    -42.70319252 </i>
    <i name="e_wo_entrp">    -42.70463058 </i>
    <i name="e_0_energy">    -42.70355204 </i>
   </energy>
  </scstep>
  <scstep>
   <time name="diag">    3.54    3.54</time>
   <time name="diis">   14.99   15.01</time>
   <time name="orth">    0.15    0.15</time>
   <time name="total">   20.97   21.00</time>
   <energy>
    <i name="e_fr_energy">    -42.70449567 </i>
    <i name="e_wo_entrp">    -42.70163519 </i>
    <i name="e_0_energy">    -42.70378055 </i>
   </energy>
  </scstep>
  <scstep>
   <time name="diag">    3.54    3.54</time>
   <time name="diis">   11.88   11.89</time>
   <time name="orth">    0.15    0.15</time>
   <time name="total">   17.84   17.87</time>
   <energy>
    <i name="e_fr_energy">    -42.68907699 </i>
    <i name="e_wo_entrp">    -42.69443594 </i>
    <i name="e_0_energy">    -42.69041673 </i>
   </energy>
  </scstep>
  <scstep>
   <time name="diag">    3.54    3.54</time>
   <time name="diis">   12.88   12.89</time>
   <time name="orth">    0.15    0.15</time>
   <time name="total">   18.84   18.87</time>
   <energy>
    <i name="e_fr_energy">    -42.67676836 </i>
    <i name="e_wo_entrp">    -42.66847020 </i>
    <i name="e_0_energy">    -42.67469382 </i>
   </energy>
  </scstep>
  <scstep>
   <time name="diag">    3.53    3.54</time>
   <time name="diis">   13.77   13.79</time>
   <time name="orth">    0.15    0.15</time>
   <time name="total">   19.73   19.76</time>
   <energy>
    <i name="e_fr_energy">    -42.97037004 </i>
    <i name="e_wo_entrp">    -42.97595427 </i>
    <i name="e_0_energy">    -42.97176610 </i>
   </energy>
  </scstep>
  <scstep>
   <time name="diag">    3.53    3.53</time>
   <time name="diis">   13.74   13.76</time>
   <time name="orth">    0.15    0.15</time>
   <time name="total">   19.70   19.73</time>
   <energy>
    <i name="e_fr_energy">    -43.09618205 </i>
    <i name="e_wo_entrp">    -43.09683609 </i>
    <i name="e_0_energy">    -43.09634556 </i>
   </energy>
  </scstep>
  <scstep>
   <time name="diag">    3.53    3.54</time>
   <time name="diis">   12.11   12.13</time>
   <time name="orth">    0.15    0.15</time>
   <time name="total">   18.08   18.11</time>
   <energy>
    <i name="e_fr_energy">    -43.06279503 </i>
    <i name="e_wo_entrp">    -43.06239213 </i>
    <i name="e_0_energy">    -43.06269431 </i>
   </energy>
  </scstep>
  <scstep>
   <time name="diag">    3.53    3.54</time>
   <time name="diis">   12.92   12.94</time>
   <time name="orth">    0.15    0.15</time>
   <time name="total">   17.03   17.06</time>
   <energy>
    <i name="alphaZ">    100.43331480 </i>
    <i name="ewald">   8759.37681812 </i>
    <i name="hartreedc"> -12271.72787239 </i>
    <i name="XCdc">     22.49983385 </i>
    <i name="pawpsdc">   4045.69931343 </i>
    <i name="pawaedc">  -4097.76319740 </i>
    <i name="eentropy">     -0.00211528 </i>
    <i name="bandstr">   -167.28024055 </i>
    <i name="atom">   3565.76896863 </i>
    <i name="e_fr_energy">    -42.99517678 </i>
    <i name="e_wo_entrp">    -42.99306150 </i>
    <i name="e_0_energy">    -42.99464796 </i>
   </energy>
  </scstep>
  <structure>
   <crystal>
    <varray name="basis" >
     <v>       3.98651217       0.00000000       0.00000000 </v>
     <v>       1.99325608       3.45242081       0.00000000 </v>
     <v>       0.00000000       0.00000000      18.00000000 </v>
    </varray>
    <i name="volume">    247.73611635 </i>
    <varray name="rec_basis" >
     <v>       0.25084584      -0.14482591       0.00000000 </v>
     <v>       0.00000000       0.28965183       0.00000000 </v>
     <v>       0.00000000       0.00000000       0.05555556 </v>
    </varray>
   </crystal>
   <varray name="positions" >
    <v>       0.00000000       0.00000000       0.00000000 </v>
    <v>       0.33344853       0.33347615       0.04522778 </v>
    <v>       0.66692468       0.66652385       0.09045000 </v>
    <v>       0.00039830       0.00000000       0.13567778 </v>
    <v>       0.33385997       0.33307667       0.18090556 </v>
    <v>       0.66732298       0.66652385       0.22612778 </v>
   </varray>
  </structure>
  <varray name="forces" >
   <v>      -0.00515721      -0.00221274       0.90613928 </v>
   <v>       0.00493768      -0.00304623      -0.21465333 </v>
   <v>       0.00477919       0.00434954      -1.17143817 </v>
   <v>      -0.00598179      -0.00610951       1.08558048 </v>
   <v>       0.00385865       0.00666604      -0.22952467 </v>
   <v>      -0.00243652       0.00035290      -0.37610360 </v>
  </varray>
  <varray name="stress" >
   <v>      55.68052164      -0.05294404      -0.06066498 </v>
   <v>      -0.05294396      55.34043729       0.10947165 </v>
   <v>      -0.06066496       0.10947184      -5.89687720 </v>
  </varray>
  <energy>
   <i name="e_fr_energy">    -42.99517678 </i>
   <i name="e_wo_entrp">    -42.99464796 </i>
   <i name="e_0_energy">     -0.00211528 </i>
  </energy>
  <time name="totalsc"> 1295.20 1296.93</time>
 </calculation>
 <calculation>
  <scstep>
   <time name="dav">   13.91   13.92</time>
   <time name="total">   16.11   16.13</time>
   <energy>
    <i name="alphaZ">    100.43331480 </i>
    <i name="ewald">   8754.82906250 </i>
    <i name="hartreedc"> -12270.93605464 </i>
    <i name="XCdc">     21.81458769 </i>
    <i name="pawpsdc">   4036.86564293 </i>
    <i name="pawaedc">  -4088.90722203 </i>
    <i name="eentropy">     -0.00936680 </i>
    <i name="bandstr">   -162.79812968 </i>
    <i name="atom">   3565.76896863 </i>
    <i name="e_fr_energy">    -42.93919661 </i>
    <i name="e_wo_entrp">    -42.92982981 </i>
    <i name="e_0_energy">    -42.93685491 </i>
   </energy>
  </scstep>
  <scstep>
   <time name="diag">    3.52    3.52</time>
   <time name="diis">   12.34   12.36</time>
   <time name="orth">    0.15    0.15</time>
   <time name="total">   18.21   18.24</time>
   <energy>
    <i name="e_fr_energy">    -52.78803585 </i>
    <i name="e_wo_entrp">    -52.79077039 </i>
    <i name="e_0_energy">    -52.78871949 </i>
   </energy>
  </scstep>
  <scstep>
   <time name="diag">    3.53    3.53</time>
   <time name="diis">   11.26   11.28</time>
   <time name="orth">    0.15    0.15</time>
   <time name="total">   17.14   17.16</time>
   <energy>
    <i name="e_fr_energy">    -43.63475632 </i>
    <i name="e_wo_entrp">    -43.63593963 </i>
    <i name="e_0_energy">    -43.63505215 </i>
   </energy>
  </scstep>
  <scstep>
   <time name="diag">    3.53    3.54</time>
   <time name="diis">   11.51   11.53</time>
   <time name="orth">    0.15    0.15</time>
   <time name="total">   17.40   17.42</time>
   <energy>
    <i name="e_fr_energy">    -42.76914501 </i>
    <i name="e_wo_entrp">    -42.76639242 </i>
    <i name="e_0_energy">    -42.76845687 </i>
   </energy>
  </scstep>
  <scstep>
   <time name="diag">    3.52    3.53</time>
   <time name="diis">   12.97   12.99</time>
   <time name="orth">    0.15    0.15</time>
   <time name="total">   18.84   18.87</time>
   <energy>
    <i name="e_fr_energy">    -42.63298977 </i>
    <i name="e_wo_entrp">    -42.62932462 </i>
    <i name="e_0_energy">    -42.63207348 </i>
   </energy>
  </scstep>
  <scstep>
   <time name="diag">    3.52    3.52</time>
   <time name="diis">   12.08   12.10</time>
   <time name="orth">    0.15    0.15</time>
   <time name="total">   17.96   17.98</time>
   <energy>
    <i name="e_fr_energy">    -43.01445051 </i>
    <i name="e_wo_entrp">    -43.02226439 </i>
    <i name="e_0_energy">    -43.01640398 </i>
   </energy>
  </scstep>
  <scstep>
   <time name="diag">    3.52    3.52</time>
   <time name="diis">   11.57   11.59</time>
   <time name="orth">    0.15    0.15</time>
   <time name="total">   17.45   17.47</time>
   <energy>
    <i name="e_fr_energy">    -42.44351512 </i>
    <i name="e_wo_entrp">    -42.44502087 </i>
    <i name="e_0_energy">    -42.44389156 </i>
   </energy>
  </scstep>
  <scstep>
   <time name="diag">    3.53    3.54</time>
   <time name="diis">   11.67   11.69</time>
   <time name="orth">    0.15    0.15</time>
   <time name="total">   17.56   17.58</time>
   <energy>
    <i name="e_fr_energy">    -41.92602554 </i>
    <i name="e_wo_entrp">    -41.92204473 </i>
    <i name="e_0_energy">    -41.92503034 </i>
   </energy>
  </scstep>
  <scstep>
   <time name="diag">    3.54    3.55</time>
   <time name="diis">   11.66   11.67</time>
   <time name="orth">    0.15    0.15</time>
   <time name="total">   17.55   17.57</time>
   <energy>
    <i name="e_fr_energy">    -41.63699085 </i>
    <i name="e_wo_entrp">    -41.62920443 </i>
    <i name="e_0_energy">    -41.63504425 </i>
   </energy>
  </scstep>
  <scstep>
   <time name="diag">    3.53    3.53</time>
   <time name="diis">   12.65   12.67</time>
   <time name="orth">    0.15    0.15</time>
   <time name="total">   18.54   18.56</time>
   <energy>
    <i name="e_fr_energy">    -41.15204738 </i>
    <i name="e_wo_entrp">    -41.14673154 </i>
    <i name="e_0_energy">    -41.15071842 </i>
   </energy>
  </scstep>
  <scstep>
   <time name="diag">    3.52    3.52</time>
   <time name="diis">   11.93   11.95</time>
   <time name="orth">    0.15    0.15</time>
   <time name="total">   17.80   17.83</time>
   <energy>
    <i name="e_fr_energy">    -42.16491271 </i>
    <i name="e_wo_entrp">    -42.15960354 </i>
    <i name="e_0_energy">    -42.16358542 </i>
   </energy>
  </scstep>
  <scstep>
   <time name="diag">    3.53    3.53</time>
   <time name="diis">   12.34   12.36</time>
   <time name="orth">    0.15    0.15</time>
   <time name="total">   18.22   18.24</time>
   <energy>
    <i name="e_fr_energy">    -41.96402591 </i>
    <i name="e_wo_entrp">    -41.95598677 </i>
    <i name="e_0_energy">    -41.96201613 </i>
   </energy>
  </scstep>
  <scstep>
   <time name="diag">    3.53    3.53</time>
   <time name="diis">   12.85   12.86</time>
   <time name="orth">    0.15    0.15</time>
   <time name="total">   18.73   18.75</time>
   <energy>
    <i name="e_fr_energy">    -42.22873370 </i>
    <i name="e_wo_entrp">    -42.22408429 </i>
    <i name="e_0_energy">    -42.22757135 </i>
   </energy>
  </scstep>
  <scstep>
   <time name="diag">    3.53    3.53</time>
   <time name="diis">   13.34   13.35</time>
   <time name="orth">    0.15    0.15</time>
   <time name="total">   19.22   19.24</time>
   <energy>
    <i name="e_fr_energy">    -42.48277465 </i>
    <i name="e_wo_entrp">    -42.47702293 </i>
    <i name="e_0_energy">    -42.48133672 </i>
   </energy>
  </scstep>
  <scstep>
   <time name="diag">    3.52    3.53</time>
   <time name="diis">   11.60   11.62</time>
   <time name="orth">    0.15    0.15</time>
   <time name="total">   17.48   17.50</time>
   <energy>
    <i name="e_fr_energy">    -42.97541628 </i>
    <i name="e_wo_entrp">    -42.96883494 </i>
    <i name="e_0_energy">    -42.97377095 </i>
   </energy>
  </scstep>
  <scstep>
   <time name="diag">    3.52    3.52</time>
   <time name="diis">   12.42   12.44</time>
   <time name="orth">    0.15    0.15</time>
   <time name="total">   18.30   18.32</time>
   <energy>
    <i name="e_fr_energy">    -43.39153025 </i>
    <i name="e_wo_entrp">    -43.38649259 </i>
    <i name="e_0_energy">    -43.39027084 </i>
   </energy>
  </scstep>
  <scstep>
   <time name="diag">    3.52    3.53</time>
   <time name="diis">   11.38   11.39</time>
   <time name="orth">    0.15    0.15</time>
   <time name="total">   17.26   17.28</time>
   <energy>
    <i name="e_fr_energy">    -43.90077538 </i>
    <i name="e_wo_entrp">    -43.89894914 </i>
    <i name="e_0_energy">    -43.90031882 </i>
   </energy>
  </scstep>
  <scstep>
   <time name="diag">    3.52    3.52</time>
   <time name="diis">   12.97   12.99</time>
   <time name="orth">    0.15    0.15</time>
   <time name="total">   18.85   18.87</time>
   <energy>
    <i name="e_fr_energy">    -44.13351593 </i>
    <i name="e_wo_entrp">    -44.13444353 </i>
    <i name="e_0_energy">    -44.13374783 </i>
   </energy>
  </scstep>
  <scstep>
   <time name="diag">    3.52    3.53</time>
   <time name="diis">   13.06   13.08</time>
   <time name="orth">    0.15    0.15</time>
   <time name="total">   18.96   18.98</time>
   <energy>
    <i name="e_fr_energy">    -44.21256555 </i>
    <i name="e_wo_entrp">    -44.21373075 </i>
    <i name="e_0_energy">    -44.21285685 </i>
   </energy>
  </scstep>
  <scstep>
   <time name="diag">    3.53    3.54</time>
   <time name="diis">   14.43   14.45</time>
   <time name="orth">    0.15    0.15</time>
   <time name="total">   20.32   20.35</time>
   <energy>
    <i name="e_fr_energy">    -44.24843362 </i>
    <i name="e_wo_entrp">    -44.24990182 </i>
    <i name="e_0_energy">    -44.24880067 </i>
   </energy>
  </scstep>
  <scstep>
   <time name="diag">    3.54    3.55</time>
   <time name="diis">   14.38   14.40</time>
   <time name="orth">    0.15    0.15</time>
   <time name="total">   20.30   20.32</time>
   <energy>
    <i name="e_fr_energy">    -44.26241038 </i>
    <i name="e_wo_entrp">    -44.26369163 </i>
    <i name="e_0_energy">    -44.26273069 </i>
   </energy>
  </scstep>
  <scstep>
   <time name="diag">    3.53    3.54</time>
   <time name="diis">   14.15   14.16</time>
   <time name="orth">    0.15    0.15</time>
   <time name="total">   20.05   20.08</time>
   <energy>
    <i name="e_fr_energy">    -44.26604805 </i>
    <i name="e_wo_entrp">    -44.26749219 </i>
    <i name="e_0_energy">    -44.26640909 </i>
   </energy>
  </scstep>
  <scstep>
   <time name="diag">    3.53    3.53</time>
   <time name="diis">   11.86   11.88</time>
   <time name="orth">    0.15    0.15</time>
   <time name="total">   17.77   17.79</time>
   <energy>
    <i name="e_fr_energy">    -44.27919671 </i>
    <i name="e_wo_entrp">    -44.28053703 </i>
    <i name="e_0_energy">    -44.27953179 </i>
   </energy>
  </scstep>
  <scstep>
   <time name="diag">    3.54    3.54</time>
   <time name="diis">   11.88   11.90</time>
   <time name="orth">    0.15    0.15</time>
   <time name="total">   17.80   17.83</time>
   <energy>
    <i name="e_fr_energy">    -44.31637096 </i>
    <i name="e_wo_entrp">    -44.31680254 </i>
    <i name="e_0_energy">    -44.31647886 </i>
   </energy>
  </scstep>
  <scstep>
   <time name="diag">    3.54    3.54</time>
   <time name="diis">   12.97   12.99</time>
   <time name="orth">    0.15    0.15</time>
   <time name="total">   18.90   18.92</time>
   <energy>
    <i name="e_fr_energy">    -44.34378252 </i>
    <i name="e_wo_entrp">    -44.34380969 </i>
    <i name="e_0_energy">    -44.34378931 </i>
   </energy>
  </scstep>
  <scstep>
   <time name="diag">    3.53    3.53</time>
   <time name="diis">   13.75   13.77</time>
   <time name="orth">    0.15    0.15</time>
   <time name="total">   19.66   19.69</time>
   <energy>
    <i name="e_fr_energy">    -44.37702461 </i>
    <i name="e_wo_entrp">    -44.37679780 </i>
    <i name="e_0_energy">    -44.37696791 </i>
   </energy>
  </scstep>
  <scstep>
   <time name="diag">    3.52    3.53</time>
   <time name="diis">   12.40   12.42</time>
   <time name="orth">    0.15    0.15</time>
   <time name="total">   18.31   18.34</time>
   <energy>
    <i name="e_fr_energy">    -44.42087324 </i>
    <i name="e_wo_entrp">    -44.42031209 </i>
    <i name="e_0_energy">    -44.42073295 </i>
   </energy>
  </scstep>
  <scstep>
   <time name="diag">    3.53    3.53</time>
   <time name="diis">   12.66   12.68</time>
   <time name="orth">    0.15    0.15</time>
   <time name="total">   18.58   18.60</time>
   <energy>
    <i name="e_fr_energy">    -44.45104548 </i>
    <i name="e_wo_entrp">    -44.45028147 </i>
    <i name="e_0_energy">    -44.45085448 </i>
   </energy>
  </scstep>
  <scstep>
   <time name="diag">    3.54    3.54</time>
   <time name="diis">   12.97   12.99</time>
   <time name="orth">    0.15    0.15</time>
   <time name="total">   18.90   18.92</time>
   <energy>
    <i name="e_fr_energy">    -44.46218776 </i>
    <i name="e_wo_entrp">    -44.46128631 </i>
    <i name="e_0_energy">    -44.46196240 </i>
   </energy>
  </scstep>
  <scstep>
   <time name="diag">    3.54    3.54</time>
   <time name="diis">   13.62   13.64</time>
   <time name="orth">    0.15    0.15</time>
   <time name="total">   19.54   19.57</time>
   <energy>
    <i name="e_fr_energy">    -44.46602065 </i>
    <i name="e_wo_entrp">    -44.46498260 </i>
    <i name="e_0_energy">    -44.46576114 </i>
   </energy>
  </scstep>
  <scstep>
   <time name="diag">    3.52    3.53</time>
   <time name="diis">   14.59   14.60</time>
   <time name="orth">    0.15    0.15</time>
   <time name="total">   20.50   20.52</time>
   <energy>
    <i name="e_fr_energy">    -44.46667517 </i>
    <i name="e_wo_entrp">    -44.46556807 </i>
    <i name="e_0_energy">    -44.46639840 </i>
   </energy>
  </scstep>
  <scstep>
   <time name="diag">    3.52    3.53</time>
   <time name="diis">    9.48    9.49</time>
   <time name="orth">    0.15    0.15</time>
   <time name="total">   15.40   15.42</time>
   <energy>
    <i name="e_fr_energy">    -44.46700908 </i>
    <i name="e_wo_entrp">    -44.46592975 </i>
    <i name="e_0_energy">    -44.46673925 </i>
   </energy>
  </scstep>
  <scstep>
   <time name="diag">    3.52    3.52</time>
   <time name="diis">   11.87   11.88</time>
   <time name="orth">    0.15    0.15</time>
   <time name="total">   17.79   17.81</time>
   <energy>
    <i name="e_fr_energy">    -44.46697279 </i>
    <i name="e_wo_entrp">    -44.46580971 </i>
    <i name="e_0_energy">    -44.46668202 </i>
   </energy>
  </scstep>
  <scstep>
   <time name="diag">    3.53    3.54</time>
   <time name="diis">   12.16   12.17</time>
   <time name="orth">    0.15    0.15</time>
   <time name="total">   18.10   18.12</time>
   <energy>
    <i name="e_fr_energy">    -44.46750660 </i>
    <i name="e_wo_entrp">    -44.46630155 </i>
    <i name="e_0_energy">    -44.46720534 </i>
   </energy>
  </scstep>
  <scstep>
   <time name="diag">    3.54    3.54</time>
   <time name="diis">   13.04   13.06</time>
   <time name="orth">    0.15    0.15</time>
   <time name="total">   18.99   19.02</time>
   <energy>
    <i name="e_fr_energy">    -44.46844971 </i>
    <i name="e_wo_entrp">    -44.46716155 </i>
    <i name="e_0_energy">    -44.46812767 </i>
   </energy>
  </scstep>
  <scstep>
   <time name="diag">    3.53    3.54</time>
   <time name="diis">   13.40   13.42</time>
   <time name="orth">    0.15    0.15</time>
   <time name="total">   19.34   19.36</time>
   <energy>
    <i name="e_fr_energy">    -44.46988818 </i>
    <i name="e_wo_entrp">    -44.46841668 </i>
    <i name="e_0_energy">    -44.46952031 </i>
   </energy>
  </scstep>
  <scstep>
   <time name="diag">    3.52    3.53</time>
   <time name="diis">   14.83   14.85</time>
   <time name="orth">    0.15    0.15</time>
   <time name="total">   20.76   20.79</time>
   <energy>
    <i name="e_fr_energy">    -44.47073064 </i>
    <i name="e_wo_entrp">    -44.46919843 </i>
    <i name="e_0_energy">    -44.47034759 </i>
   </energy>
  </scstep>
  <scstep>
   <time name="diag">    3.51    3.52</time>
   <time name="diis">   10.54   10.55</time>
   <time name="orth">    0.15    0.15</time>
   <time name="total">   16.46   16.48</time>
   <energy>
    <i name="e_fr_energy">    -44.47120049 </i>
    <i name="e_wo_entrp">    -44.46965734 </i>
    <i name="e_0_energy">    -44.47081470 </i>
   </energy>
  </scstep>
  <scstep>
   <time name="diag">    3.51    3.51</time>
   <time name="diis">   10.79   10.80</time>
   <time name="orth">    0.15    0.15</time>
   <time name="total">   16.70   16.73</time>
   <energy>
    <i name="e_fr_energy">    -44.47157005 </i>
    <i name="e_wo_entrp">    -44.47000844 </i>
    <i name="e_0_energy">    -44.47117964 </i>
   </energy>
  </scstep>
  <scstep>
   <time name="diag">    3.53    3.53</time>
   <time name="diis">    8.97    8.98</time>
   <time name="orth">    0.15    0.15</time>
   <time name="total">   14.92   14.94</time>
   <energy>
    <i name="e_fr_energy">    -44.47186192 </i>
    <i name="e_wo_entrp">    -44.47028687 </i>
    <i name="e_0_energy">    -44.47146816 </i>
   </energy>
  </scstep>
  <scstep>
   <time name="diag">    3.52    3.53</time>
   <time name="diis">    9.18    9.19</time>
   <time name="orth">    0.15    0.15</time>
   <time name="total">   15.12   15.14</time>
   <energy>
    <i name="e_fr_energy">    -44.47215879 </i>
    <i name="e_wo_entrp">    -44.47057444 </i>
    <i name="e_0_energy">    -44.47176270 </i>
   </energy>
  </scstep>
  <scstep>
   <time name="diag">    3.54    3.55</time>
   <time name="diis">    9.86    9.87</time>
   <time name="orth">    0.15    0.15</time>
   <time name="total">   15.82   15.84</time>
   <energy>
    <i name="e_fr_energy">    -44.47230969 </i>
    <i name="e_wo_entrp">    -44.47071306 </i>
    <i name="e_0_energy">    -44.47191053 </i>
   </energy>
  </scstep>
  <scstep>
   <time name="diag">    3.53    3.54</time>
   <time name="diis">    7.75    7.76</time>
   <time name="orth">    0.15    0.15</time>
   <time name="total">   13.70   13.72</time>
   <energy>
    <i name="e_fr_energy">    -44.47233293 </i>
    <i name="e_wo_entrp">    -44.47073761 </i>
    <i name="e_0_energy">    -44.47193410 </i>
   </energy>
  </scstep>
  <scstep>
   <time name="diag">    3.54    3.55</time>
   <time name="diis">    7.62    7.63</time>
   <time name="orth">    0.15    0.15</time>
   <time name="total">   13.59   13.61</time>
   <energy>
    <i name="e_fr_energy">    -44.47236975 </i>
    <i name="e_wo_entrp">    -44.47077173 </i>
    <i name="e_0_energy">    -44.47197025 </i>
   </energy>
  </scstep>
  <scstep>
   <time name="diag">    3.52    3.52</time>
   <time name="diis">    7.62    7.63</time>
   <time name="orth">    0.15    0.15</time>
   <time name="total">   13.57   13.58</time>
   <energy>
    <i name="e_fr_energy">    -44.47238747 </i>
    <i name="e_wo_entrp">    -44.47078935 </i>
    <i name="e_0_energy">    -44.47198794 </i>
   </energy>
  </scstep>
  <scstep>
   <time name="diag">    3.52    3.53</time>
   <time name="diis">    7.32    7.33</time>
   <time name="orth">    0.15    0.15</time>
   <time name="total">   13.28   13.30</time>
   <energy>
    <i name="e_fr_energy">    -44.47239810 </i>
    <i name="e_wo_entrp">    -44.47080058 </i>
    <i name="e_0_energy">    -44.47199872 </i>
   </energy>
  </scstep>
  <scstep>
   <time name="diag">    3.54    3.54</time>
   <time name="diis">    7.38    7.38</time>
   <time name="orth">    0.15    0.15</time>
   <time name="total">   13.34   13.36</time>
   <energy>
    <i name="e_fr_energy">    -44.47241226 </i>
    <i name="e_wo_entrp">    -44.47081134 </i>
    <i name="e_0_energy">    -44.47201203 </i>
   </energy>
  </scstep>
  <scstep>
   <time name="diag">    3.52    3.53</time>
   <time name="diis">    7.36    7.38</time>
   <time name="orth">    0.15    0.15</time>
   <time name="total">   13.31   13.33</time>
   <energy>
    <i name="e_fr_energy">    -44.47242739 </i>
    <i name="e_wo_entrp">    -44.47082396 </i>
    <i name="e_0_energy">    -44.47202653 </i>
   </energy>
  </scstep>
  <scstep>
   <time name="diag">    3.53    3.54</time>
   <time name="diis">    7.50    7.51</time>
   <time name="orth">    0.15    0.15</time>
   <time name="total">   13.46   13.48</time>
   <energy>
    <i name="e_fr_energy">    -44.47244229 </i>
    <i name="e_wo_entrp">    -44.47083351 </i>
    <i name="e_0_energy">    -44.47204010 </i>
   </energy>
  </scstep>
  <scstep>
   <time name="diag">    3.52    3.52</time>
   <time name="diis">    7.40    7.41</time>
   <time name="orth">    0.15    0.15</time>
   <time name="total">   11.50   11.51</time>
   <energy>
    <i name="alphaZ">    100.43331480 </i>
    <i name="ewald">   8754.82906250 </i>
    <i name="hartreedc"> -12284.45804154 </i>
    <i name="XCdc">     23.81373818 </i>
    <i name="pawpsdc">   4076.16585283 </i>
    <i name="pawaedc">  -4129.15767203 </i>
    <i name="eentropy">     -0.00160981 </i>
    <i name="bandstr">   -151.86606510 </i>
    <i name="atom">   3565.76896863 </i>
    <i name="e_fr_energy">    -44.47245154 </i>
    <i name="e_wo_entrp">    -44.47084174 </i>
    <i name="e_0_energy">    -44.47204909 </i>
   </energy>
  </scstep>
  <structure>
   <crystal>
    <varray name="basis" >
     <v>       3.98651217       0.00000000       0.00000000 </v>
     <v>       1.99325608       3.45242081       0.00000000 </v>
     <v>       0.00000000       0.00000000      18.00000000 </v>
    </varray>
    <i name="volume">    247.73611635 </i>
    <varray name="rec_basis" >
     <v>       0.25084584      -0.14482591       0.00000000 </v>
     <v>       0.00000000       0.28965183       0.00000000 </v>
     <v>       0.00000000       0.00000000       0.05555556 </v>
    </varray>
   </crystal>
   <varray name="positions" >
    <v>       0.00000000       0.00000000       0.00000000 </v>
    <v>       0.33344853       0.33347615       0.04522778 </v>
    <v>       0.66695213       0.66658463       0.08731037 </v>
    <v>       0.00036860      -0.00008537       0.13858729 </v>
    <v>       0.33386009       0.33316981       0.18029040 </v>
    <v>       0.66729103       0.66652878       0.22511976 </v>
   </varray>
  </structure>
  <varray name="forces" >
   <v>       0.00182723       0.00108561       0.54997216 </v>
   <v>       0.00033303      -0.00487764       0.44969332 </v>
   <v>      -0.00022555       0.00180670      -0.40717638 </v>
   <v>       0.00095070       0.00022767       0.34214012 </v>
   <v>      -0.00187776       0.00184496      -0.45055795 </v>
   <v>      -0.00100766      -0.00008729      -0.48407126 </v>
  </varray>
  <varray name="stress" >
   <v>     -33.44553757      -0.03735204      -0.04933827 </v>
   <v>      -0.03735200     -33.50867003       0.03250832 </v>
   <v>      -0.04933821       0.03250838     -19.54385875 </v>
  </varray>
  <energy>
   <i name="e_fr_energy">    -44.47245154 </i>
   <i name="e_wo_entrp">    -44.47204909 </i>
   <i name="e_0_energy">     -0.00160981 </i>
  </energy>
  <time name="totalsc">  879.19  880.33</time>
 </calculation>
 <calculation>
  <scstep>
   <time name="dav">   16.11   16.13</time>
   <time name="total">   18.31   18.33</time>
   <energy>
    <i name="alphaZ">    100.43331480 </i>
    <i name="ewald">   8754.78829431 </i>
    <i name="hartreedc"> -12284.41802658 </i>
    <i name="XCdc">     23.81379390 </i>
    <i name="pawpsdc">   4076.16810046 </i>
    <i name="pawaedc">  -4129.16016308 </i>
    <i name="eentropy">     -0.00158266 </i>
    <i name="bandstr">   -151.86552428 </i>
    <i name="atom">   3565.76896863 </i>
    <i name="e_fr_energy">    -44.47282450 </i>
    <i name="e_wo_entrp">    -44.47124184 </i>
    <i name="e_0_energy">    -44.47242883 </i>
   </energy>
  </scstep>
  <scstep>
   <time name="diag">    3.52    3.53</time>
   <time name="diis">   11.80   11.82</time>
   <time name="orth">    0.15    0.15</time>
   <time name="total">   17.68   17.70</time>
   <energy>
    <i name="e_fr_energy">    -44.47303768 </i>
    <i name="e_wo_entrp">    -44.47149829 </i>
    <i name="e_0_energy">    -44.47265284 </i>
   </energy>
  </scstep>
  <scstep>
   <time name="diag">    3.52    3.53</time>
   <time name="diis">   11.04   11.05</time>
   <time name="orth">    0.15    0.15</time>
   <time name="total">   16.92   16.94</time>
   <energy>
    <i name="e_fr_energy">    -44.47281346 </i>
    <i name="e_wo_entrp">    -44.47124866 </i>
    <i name="e_0_energy">    -44.47242226 </i>
   </energy>
  </scstep>
  <scstep>
   <time name="diag">    3.53    3.53</time>
   <time name="diis">   11.80   11.82</time>
   <time name="orth">    0.15    0.15</time>
   <time name="total">   17.67   17.70</time>
   <energy>
    <i name="e_fr_energy">    -44.47283081 </i>
    <i name="e_wo_entrp">    -44.47126870 </i>
    <i name="e_0_energy">    -44.47244028 </i>
   </energy>
  </scstep>
  <scstep>
   <time name="diag">    3.52    3.53</time>
   <time name="diis">    8.02    8.03</time>
   <time name="orth">    0.15    0.15</time>
   <time name="total">   12.13   12.14</time>
   <energy>
    <i name="alphaZ">    100.43331480 </i>
    <i name="ewald">   8754.78829431 </i>
    <i name="hartreedc"> -12284.40576863 </i>
    <i name="XCdc">     23.81418039 </i>
    <i name="pawpsdc">   4076.12824724 </i>
    <i name="pawaedc">  -4129.11899745 </i>
    <i name="eentropy">     -0.00155922 </i>
    <i name="bandstr">   -151.87950368 </i>
    <i name="atom">   3565.76896863 </i>
    <i name="e_fr_energy">    -44.47282360 </i>
    <i name="e_wo_entrp">    -44.47126438 </i>
    <i name="e_0_energy">    -44.47243379 </i>
   </energy>
  </scstep>
  <structure>
   <crystal>
    <varray name="basis" >
     <v>       3.98651217       0.00000000       0.00000000 </v>
     <v>       1.99325608       3.45242081       0.00000000 </v>
     <v>       0.00000000       0.00000000      18.00000000 </v>
    </varray>
    <i name="volume">    247.73611635 </i>
    <varray name="rec_basis" >
     <v>       0.25084584      -0.14482591       0.00000000 </v>
     <v>       0.00000000       0.28965183       0.00000000 </v>
     <v>       0.00000000       0.00000000       0.05555556 </v>
    </varray>
   </crystal>
   <varray name="positions" >
    <v>       0.00000000       0.00000000       0.00000000 </v>
    <v>       0.33344853       0.33347615       0.04522778 </v>
    <v>       0.66695231       0.66658502       0.08729001 </v>
    <v>       0.00036841      -0.00008593       0.13860616 </v>
    <v>       0.33386009       0.33317042       0.18028641 </v>
    <v>       0.66729082       0.66652881       0.22511323 </v>
   </varray>
  </structure>
  <varray name="forces" >
   <v>       0.00180734       0.00114750       0.54754741 </v>
   <v>       0.00029524      -0.00486821       0.45169808 </v>
   <v>      -0.00016647       0.00171982      -0.40730542 </v>
   <v>       0.00114258       0.00014391       0.34094542 </v>
   <v>      -0.00200878       0.00188677      -0.44808887 </v>
   <v>      -0.00106992      -0.00002979      -0.48479663 </v>
  </varray>
  <varray name="stress" >
   <v>     -33.37056605      -0.03766975      -0.05034676 </v>
   <v>      -0.03766979     -33.43315869       0.03261411 </v>
   <v>      -0.05034703       0.03261430     -19.43228449 </v>
  </varray>
  <energy>
   <i name="e_fr_energy">    -44.47282360 </i>
   <i name="e_wo_entrp">    -44.47243379 </i>
   <i name="e_0_energy">     -0.00155922 </i>
  </energy>
  <time name="totalsc">   94.50   94.62</time>
 </calculation>
 <calculation>
  <scstep>
   <time name="dav">   14.10   14.12</time>
   <time name="total">   16.30   16.33</time>
   <energy>
    <i name="alphaZ">    100.43331480 </i>
    <i name="ewald">   8754.70632700 </i>
    <i name="hartreedc"> -12284.32930075 </i>
    <i name="XCdc">     23.81419148 </i>
    <i name="pawpsdc">   4076.12817734 </i>
    <i name="pawaedc">  -4129.11921566 </i>
    <i name="eentropy">     -0.00150770 </i>
    <i name="bandstr">   -151.87446035 </i>
    <i name="atom">   3565.76896863 </i>
    <i name="e_fr_energy">    -44.47350521 </i>
    <i name="e_wo_entrp">    -44.47199752 </i>
    <i name="e_0_energy">    -44.47312829 </i>
   </energy>
  </scstep>
  <scstep>
   <time name="diag">    3.53    3.54</time>
   <time name="diis">   11.41   11.43</time>
   <time name="orth">    0.15    0.15</time>
   <time name="total">   17.30   17.33</time>
   <energy>
    <i name="e_fr_energy">    -44.47362021 </i>
    <i name="e_wo_entrp">    -44.47217520 </i>
    <i name="e_0_energy">    -44.47325895 </i>
   </energy>
  </scstep>
  <scstep>
   <time name="diag">    3.53    3.54</time>
   <time name="diis">   11.11   11.13</time>
   <time name="orth">    0.15    0.15</time>
   <time name="total">   17.00   17.02</time>
   <energy>
    <i name="e_fr_energy">    -44.47348693 </i>
    <i name="e_wo_entrp">    -44.47202564 </i>
    <i name="e_0_energy">    -44.47312161 </i>
   </energy>
  </scstep>
  <scstep>
   <time name="diag">    3.52    3.52</time>
   <time name="diis">   10.82   10.83</time>
   <time name="orth">    0.15    0.15</time>
   <time name="total">   16.68   16.70</time>
   <energy>
    <i name="e_fr_energy">    -44.47349721 </i>
    <i name="e_wo_entrp">    -44.47204230 </i>
    <i name="e_0_energy">    -44.47313349 </i>
   </energy>
  </scstep>
  <scstep>
   <time name="diag">    3.51    3.51</time>
   <time name="diis">    7.23    7.24</time>
   <time name="orth">    0.15    0.15</time>
   <time name="total">   13.09   13.11</time>
   <energy>
    <i name="e_fr_energy">    -44.47347786 </i>
    <i name="e_wo_entrp">    -44.47202815 </i>
    <i name="e_0_energy">    -44.47311544 </i>
   </energy>
  </scstep>
  <scstep>
   <time name="diag">    3.52    3.52</time>
   <time name="diis">    6.79    6.80</time>
   <time name="orth">    0.15    0.15</time>
   <time name="total">   10.88   10.90</time>
   <energy>
    <i name="alphaZ">    100.43331480 </i>
    <i name="ewald">   8754.70632700 </i>
    <i name="hartreedc"> -12284.30224680 </i>
    <i name="XCdc">     23.81473477 </i>
    <i name="pawpsdc">   4076.06680655 </i>
    <i name="pawaedc">  -4129.05804303 </i>
    <i name="eentropy">     -0.00145194 </i>
    <i name="bandstr">   -151.90188206 </i>
    <i name="atom">   3565.76896863 </i>
    <i name="e_fr_energy">    -44.47347209 </i>
    <i name="e_wo_entrp">    -44.47202014 </i>
    <i name="e_0_energy">    -44.47310910 </i>
   </energy>
  </scstep>
  <structure>
   <crystal>
    <varray name="basis" >
     <v>       3.98651217       0.00000000       0.00000000 </v>
     <v>       1.99325608       3.45242081       0.00000000 </v>
     <v>       0.00000000       0.00000000      18.00000000 </v>
    </varray>
    <i name="volume">    247.73611635 </i>
    <varray name="rec_basis" >
     <v>       0.25084584      -0.14482591       0.00000000 </v>
     <v>       0.00000000       0.28965183       0.00000000 </v>
     <v>       0.00000000       0.00000000       0.05555556 </v>
    </varray>
   </crystal>
   <varray name="positions" >
    <v>       0.00000000       0.00000000       0.00000000 </v>
    <v>       0.33344853       0.33347615       0.04522778 </v>
    <v>       0.66695266       0.66658581       0.08724928 </v>
    <v>       0.00036802      -0.00008703       0.13864391 </v>
    <v>       0.33386009       0.33317163       0.18027843 </v>
    <v>       0.66729041       0.66652888       0.22510015 </v>
   </varray>
  </structure>
  <varray name="forces" >
   <v>       0.00182202       0.00117449       0.54534447 </v>
   <v>       0.00029255      -0.00489270       0.45150433 </v>
   <v>      -0.00018683       0.00171622      -0.40460552 </v>
   <v>       0.00118114       0.00019330       0.33939501 </v>
   <v>      -0.00203784       0.00181505      -0.44725174 </v>
   <v>      -0.00107104      -0.00000636      -0.48438655 </v>
  </varray>
  <varray name="stress" >
   <v>     -33.40250842      -0.03773330      -0.05040243 </v>
   <v>      -0.03773321     -33.46492083       0.03240872 </v>
   <v>      -0.05040250       0.03240876     -19.33849997 </v>
  </varray>
  <energy>
   <i name="e_fr_energy">    -44.47347209 </i>
   <i name="e_wo_entrp">    -44.47310910 </i>
   <i name="e_0_energy">     -0.00145194 </i>
  </energy>
  <time name="totalsc">  103.06  103.19</time>
 </calculation>
 <calculation>
  <scstep>
   <time name="dav">   13.90   13.92</time>
   <time name="total">   16.10   16.12</time>
   <energy>
    <i name="alphaZ">    100.43331480 </i>
    <i name="ewald">   8754.54066953 </i>
    <i name="hartreedc"> -12284.14812963 </i>
    <i name="XCdc">     23.81472452 </i>
    <i name="pawpsdc">   4076.06786321 </i>
    <i name="pawaedc">  -4129.05943510 </i>
    <i name="eentropy">     -0.00134508 </i>
    <i name="bandstr">   -151.89141834 </i>
    <i name="atom">   3565.76896863 </i>
    <i name="e_fr_energy">    -44.47478747 </i>
    <i name="e_wo_entrp">    -44.47344240 </i>
    <i name="e_0_energy">    -44.47445120 </i>
   </energy>
  </scstep>
  <scstep>
   <time name="diag">    3.52    3.52</time>
   <time name="diis">   11.48   11.50</time>
   <time name="orth">    0.15    0.15</time>
   <time name="total">   17.34   17.36</time>
   <energy>
    <i name="e_fr_energy">    -44.47489210 </i>
    <i name="e_wo_entrp">    -44.47365209 </i>
    <i name="e_0_energy">    -44.47458210 </i>
   </energy>
  </scstep>
  <scstep>
   <time name="diag">    3.52    3.53</time>
   <time name="diis">   11.22   11.24</time>
   <time name="orth">    0.15    0.15</time>
   <time name="total">   17.09   17.11</time>
   <energy>
    <i name="e_fr_energy">    -44.47486928 </i>
    <i name="e_wo_entrp">    -44.47360057 </i>
    <i name="e_0_energy">    -44.47455210 </i>
   </energy>
  </scstep>
  <scstep>
   <time name="diag">    3.53    3.54</time>
   <time name="diis">   10.10   10.11</time>
   <time name="orth">    0.15    0.15</time>
   <time name="total">   15.98   16.00</time>
   <energy>
    <i name="e_fr_energy">    -44.47482965 </i>
    <i name="e_wo_entrp">    -44.47359354 </i>
    <i name="e_0_energy">    -44.47452063 </i>
   </energy>
  </scstep>
  <scstep>
   <time name="diag">    3.53    3.54</time>
   <time name="diis">    7.58    7.59</time>
   <time name="orth">    0.15    0.15</time>
   <time name="total">   11.69   11.70</time>
   <energy>
    <i name="alphaZ">    100.43331480 </i>
    <i name="ewald">   8754.54066953 </i>
    <i name="hartreedc"> -12284.08380242 </i>
    <i name="XCdc">     23.81543520 </i>
    <i name="pawpsdc">   4075.95676332 </i>
    <i name="pawaedc">  -4128.94797219 </i>
    <i name="eentropy">     -0.00123993 </i>
    <i name="bandstr">   -151.95695916 </i>
    <i name="atom">   3565.76896863 </i>
    <i name="e_fr_energy">    -44.47482222 </i>
    <i name="e_wo_entrp">    -44.47358230 </i>
    <i name="e_0_energy">    -44.47451224 </i>
   </energy>
  </scstep>
  <structure>
   <crystal>
    <varray name="basis" >
     <v>       3.98651217       0.00000000       0.00000000 </v>
     <v>       1.99325608       3.45242081       0.00000000 </v>
     <v>       0.00000000       0.00000000      18.00000000 </v>
    </varray>
    <i name="volume">    247.73611635 </i>
    <varray name="rec_basis" >
     <v>       0.25084584      -0.14482591       0.00000000 </v>
     <v>       0.00000000       0.28965183       0.00000000 </v>
     <v>       0.00000000       0.00000000       0.05555556 </v>
    </varray>
   </crystal>
   <varray name="positions" >
    <v>       0.00000000       0.00000000       0.00000000 </v>
    <v>       0.33344853       0.33347615       0.04522778 </v>
    <v>       0.66695337       0.66658739       0.08716783 </v>
    <v>       0.00036725      -0.00008925       0.13871939 </v>
    <v>       0.33386009       0.33317404       0.18026247 </v>
    <v>       0.66728958       0.66652901       0.22507400 </v>
   </varray>
  </structure>
  <varray name="forces" >
   <v>       0.00184821       0.00119668       0.54346845 </v>
   <v>       0.00029006      -0.00489562       0.45024545 </v>
   <v>      -0.00023084       0.00168329      -0.40288326 </v>
   <v>       0.00125970       0.00026320       0.33598992 </v>
   <v>      -0.00211112       0.00172735      -0.44582781 </v>
   <v>      -0.00105601       0.00002509      -0.48099276 </v>
  </varray>
  <varray name="stress" >
   <v>     -33.45239301      -0.03789475      -0.05073566 </v>
   <v>      -0.03789470     -33.51426798       0.03190196 </v>
   <v>      -0.05073544       0.03190169     -19.22550936 </v>
  </varray>
  <energy>
   <i name="e_fr_energy">    -44.47482222 </i>
   <i name="e_wo_entrp">    -44.47451224 </i>
   <i name="e_0_energy">     -0.00123993 </i>
  </energy>
  <time name="totalsc">   89.99   90.10</time>
 </calculation>
 <calculation>
  <scstep>
   <time name="dav">   13.86   13.87</time>
   <time name="total">   16.06   16.07</time>
   <energy>
    <i name="alphaZ">    100.43331480 </i>
    <i name="ewald">   8754.20247006 </i>
    <i name="hartreedc"> -12283.76267340 </i>
    <i name="XCdc">     23.81561756 </i>
    <i name="pawpsdc">   4075.95821951 </i>
    <i name="pawaedc">  -4128.95107903 </i>
    <i name="eentropy">     -0.00106043 </i>
    <i name="bandstr">   -151.94103056 </i>
    <i name="atom">   3565.76896863 </i>
    <i name="e_fr_energy">    -44.47725286 </i>
    <i name="e_wo_entrp">    -44.47619243 </i>
    <i name="e_0_energy">    -44.47698776 </i>
   </energy>
  </scstep>
  <scstep>
   <time name="diag">    3.54    3.54</time>
   <time name="diis">   11.39   11.41</time>
   <time name="orth">    0.15    0.15</time>
   <time name="total">   17.28   17.31</time>
   <energy>
    <i name="e_fr_energy">    -44.47769231 </i>
    <i name="e_wo_entrp">    -44.47685895 </i>
    <i name="e_0_energy">    -44.47748397 </i>
   </energy>
  </scstep>
  <scstep>
   <time name="diag">    3.53    3.54</time>
   <time name="diis">   11.23   11.24</time>
   <time name="orth">    0.15    0.15</time>
   <time name="total">   17.11   17.14</time>
   <energy>
    <i name="e_fr_energy">    -44.47769138 </i>
    <i name="e_wo_entrp">    -44.47674038 </i>
    <i name="e_0_energy">    -44.47745363 </i>
   </energy>
  </scstep>
  <scstep>
   <time name="diag">    3.53    3.53</time>
   <time name="diis">   11.20   11.22</time>
   <time name="orth">    0.15    0.15</time>
   <time name="total">   17.09   17.11</time>
   <energy>
    <i name="e_fr_energy">    -44.47753793 </i>
    <i name="e_wo_entrp">    -44.47666525 </i>
    <i name="e_0_energy">    -44.47731976 </i>
   </energy>
  </scstep>
  <scstep>
   <time name="diag">    3.54    3.55</time>
   <time name="diis">   10.83   10.85</time>
   <time name="orth">    0.15    0.15</time>
   <time name="total">   16.72   16.75</time>
   <energy>
    <i name="e_fr_energy">    -44.47755336 </i>
    <i name="e_wo_entrp">    -44.47666778 </i>
    <i name="e_0_energy">    -44.47733196 </i>
   </energy>
  </scstep>
  <scstep>
   <time name="diag">    3.54    3.54</time>
   <time name="diis">   11.00   11.02</time>
   <time name="orth">    0.15    0.15</time>
   <time name="total">   16.89   16.91</time>
   <energy>
    <i name="e_fr_energy">    -44.47757536 </i>
    <i name="e_wo_entrp">    -44.47676842 </i>
    <i name="e_0_energy">    -44.47737363 </i>
   </energy>
  </scstep>
  <scstep>
   <time name="diag">    3.52    3.53</time>
   <time name="diis">    7.74    7.75</time>
   <time name="orth">    0.15    0.15</time>
   <time name="total">   13.61   13.63</time>
   <energy>
    <i name="e_fr_energy">    -44.47758689 </i>
    <i name="e_wo_entrp">    -44.47678778 </i>
    <i name="e_0_energy">    -44.47738712 </i>
   </energy>
  </scstep>
  <scstep>
   <time name="diag">    3.52    3.53</time>
   <time name="diis">    7.40    7.41</time>
   <time name="orth">    0.15    0.15</time>
   <time name="total">   13.29   13.30</time>
   <energy>
    <i name="e_fr_energy">    -44.47759852 </i>
    <i name="e_wo_entrp">    -44.47679192 </i>
    <i name="e_0_energy">    -44.47739687 </i>
   </energy>
  </scstep>
  <scstep>
   <time name="diag">    3.52    3.52</time>
   <time name="diis">    7.24    7.25</time>
   <time name="orth">    0.15    0.15</time>
   <time name="total">   13.11   13.13</time>
   <energy>
    <i name="e_fr_energy">    -44.47761432 </i>
    <i name="e_wo_entrp">    -44.47681312 </i>
    <i name="e_0_energy">    -44.47741402 </i>
   </energy>
  </scstep>
  <scstep>
   <time name="diag">    3.54    3.54</time>
   <time name="diis">    7.11    7.12</time>
   <time name="orth">    0.15    0.15</time>
   <time name="total">   13.00   13.02</time>
   <energy>
    <i name="e_fr_energy">    -44.47762839 </i>
    <i name="e_wo_entrp">    -44.47683058 </i>
    <i name="e_0_energy">    -44.47742894 </i>
   </energy>
  </scstep>
  <scstep>
   <time name="diag">    3.53    3.54</time>
   <time name="diis">    6.94    6.95</time>
   <time name="orth">    0.15    0.15</time>
   <time name="total">   12.83   12.84</time>
   <energy>
    <i name="e_fr_energy">    -44.47764570 </i>
    <i name="e_wo_entrp">    -44.47685326 </i>
    <i name="e_0_energy">    -44.47744759 </i>
   </energy>
  </scstep>
  <scstep>
   <time name="diag">    3.52    3.52</time>
   <time name="diis">    7.02    7.02</time>
   <time name="orth">    0.15    0.15</time>
   <time name="total">   12.89   12.91</time>
   <energy>
    <i name="e_fr_energy">    -44.47766489 </i>
    <i name="e_wo_entrp">    -44.47687707 </i>
    <i name="e_0_energy">    -44.47746794 </i>
   </energy>
  </scstep>
[...]
       <r>     5.8935     0.0000    31.0000 </r>
       <r>     5.9686     0.0000    31.0000 </r>
       <r>     6.0436     0.0000    31.0000 </r>
       <r>     6.1187     0.0000    31.0000 </r>
       <r>     6.1937     0.0000    31.0000 </r>
       <r>     6.2688     0.0000    31.0000 </r>
       <r>     6.3439     0.0000    31.0000 </r>
       <r>     6.4189     0.0000    31.0000 </r>
       <r>     6.4940     0.0000    31.0000 </r>
       <r>     6.5691     0.0000    31.0000 </r>
       <r>     6.6441     0.0000    31.0000 </r>
       <r>     6.7192     0.0000    31.0000 </r>
       <r>     6.7942     0.0000    31.0000 </r>
       <r>     6.8693     0.0000    31.0000 </r>
       <r>     6.9444     0.0000    31.0000 </r>
       <r>     7.0194     0.0000    31.0000 </r>
       <r>     7.0945     0.0000    31.0000 </r>
       <r>     7.1695     0.0000    31.0000 </r>
       <r>     7.2446     0.0000    31.0000 </r>
       <r>     7.3197     0.0000    31.0000 </r>
       <r>     7.3947     0.0000    31.0000 </r>
       <r>     7.4698     0.0000    31.0000 </r>
       <r>     7.5449     0.0000    31.0000 </r>
       <r>     7.6199     0.0000    31.0000 </r>
       <r>     7.6950     0.0000    31.0000 </r>
       <r>     7.7700     0.0000    31.0000 </r>
       <r>     7.8451     0.0000    31.0000 </r>
       <r>     7.9202     0.0000    31.0000 </r>
       <r>     7.9952     0.0000    31.0000 </r>
       <r>     8.0703     0.0000    31.0000 </r>
       <r>     8.1454     0.0000    31.0000 </r>
       <r>     8.2204     0.0000    31.0000 </r>
       <r>     8.2955     0.0000    31.0000 </r>
       <r>     8.3705     0.0000    31.0000 </r>
       <r>     8.4456     0.0000    31.0000 </r>
       <r>     8.5207     0.0000    31.0000 </r>
       <r>     8.5957     0.0000    31.0000 </r>
       <r>     8.6708     0.0000    31.0000 </r>
       <r>     8.7458     0.0000    31.0000 </r>
       <r>     8.8209     0.0000    31.0000 </r>
       <r>     8.8960     0.0000    31.0000 </r>
       <r>     8.9710     0.0000    31.0000 </r>
       <r>     9.0461     0.0000    31.0000 </r>
       <r>     9.1212     0.0000    31.0000 </r>
       <r>     9.1962     0.0000    31.0000 </r>
       <r>     9.2713     0.0000    31.0000 </r>
       <r>     9.3463     0.0000    31.0000 </r>
       <r>     9.4214     0.0000    31.0000 </r>
       <r>     9.4965     0.0000    31.0000 </r>
       <r>     9.5715     0.0000    31.0000 </r>
       <r>     9.6466     0.0000    31.0000 </r>
       <r>     9.7217     0.0000    31.0000 </r>
       <r>     9.7967     0.0000    31.0000 </r>
       <r>     9.8718     0.0000    31.0000 </r>
       <r>     9.9468     0.0000    31.0000 </r>
       <r>    10.0219     0.0000    31.0000 </r>
       <r>    10.0970     0.0000    31.0000 </r>
       <r>    10.1720     0.0000    31.0000 </r>
       <r>    10.2471     0.0000    31.0000 </r>
       <r>    10.3221     0.0000    31.0000 </r>
       <r>    10.3972     0.0000    31.0000 </r>
       <r>    10.4723     0.0000    31.0000 </r>
       <r>    10.5473     0.0000    31.0000 </r>
       <r>    10.6224     0.0000    31.0000 </r>
       <r>    10.6975     0.0000    31.0000 </r>
       <r>    10.7725     0.0000    31.0000 </r>
       <r>    10.8476     0.0000    31.0000 </r>
       <r>    10.9226     0.0000    31.0000 </r>
       <r>    10.9977     0.0000    31.0000 </r>
       <r>    11.0728     0.0000    31.0000 </r>
       <r>    11.1478     0.0000    31.0000 </r>
       <r>    11.2229     0.0000    31.0000 </r>
       <r>    11.2980     0.0000    31.0000 </r>
       <r>    11.3730     0.0000    31.0000 </r>
       <r>    11.4481     0.0000    31.0000 </r>
       <r>    11.5231     0.0000    31.0000 </r>
      </set>
      <set comment="spin 2">
       <r>   -10.9954     0.0000     0.0000 </r>
       <r>   -10.9204     0.0000     0.0000 </r>
       <r>   -10.8453     0.0000     0.0000 </r>
       <r>   -10.7702     0.0000     0.0000 </r>
       <r>   -10.6952     0.0000     0.0000 </r>
       <r>   -10.6201     0.0000     0.0000 </r>
       <r>   -10.5451     0.0000     0.0000 </r>
       <r>   -10.4700     0.0000     0.0000 </r>
       <r>   -10.3949     0.0000     0.0000 </r>
       <r>   -10.3199     0.0000     0.0000 </r>
       <r>   -10.2448     0.0000     0.0000 </r>
       <r>   -10.1697     0.0000     0.0000 </r>
       <r>   -10.0947     0.0000     0.0000 </r>
       <r>   -10.0196     0.0000     0.0000 </r>
       <r>    -9.9446     0.0000     0.0000 </r>
       <r>    -9.8695     0.0000     0.0000 </r>
       <r>    -9.7944     0.0000     0.0000 </r>
       <r>    -9.7194     0.0000     0.0000 </r>
       <r>    -9.6443     0.0000     0.0000 </r>
       <r>    -9.5692     0.0000     0.0000 </r>
       <r>    -9.4942     0.0000     0.0000 </r>
       <r>    -9.4191     0.0000     0.0000 </r>
       <r>    -9.3441     0.0000     0.0000 </r>
       <r>    -9.2690     0.0000     0.0000 </r>
       <r>    -9.1939     0.0000     0.0000 </r>
       <r>    -9.1189     0.0000     0.0000 </r>
       <r>    -9.0438     0.0000     0.0000 </r>
       <r>    -8.9688     0.0000     0.0000 </r>
       <r>    -8.8937     0.0000     0.0000 </r>
       <r>    -8.8186     0.0001     0.0000 </r>
       <r>    -8.7436     0.0017     0.0001 </r>
       <r>    -8.6685    -0.0060    -0.0003 </r>
       <r>    -8.5934    -0.0175    -0.0016 </r>
       <r>    -8.5184     0.2627     0.0181 </r>
       <r>    -8.4433     0.3038     0.0409 </r>
       <r>    -8.3683    -0.0043     0.0406 </r>
       <r>    -8.2932    -0.0092     0.0399 </r>
       <r>    -8.2181     0.0117     0.0408 </r>
       <r>    -8.1431    -0.0276     0.0387 </r>
       <r>    -8.0680    -0.1278     0.0291 </r>
       <r>    -7.9930     1.4640     0.1390 </r>
       <r>    -7.9179     1.9156     0.2828 </r>
       <r>    -7.8428     0.0187     0.2842 </r>
       <r>    -7.7678    -0.0698     0.2789 </r>
       <r>    -7.6927     0.0128     0.2799 </r>
       <r>    -7.6176     0.0014     0.2800 </r>
       <r>    -7.5426     0.0000     0.2800 </r>
       <r>    -7.4675     0.0000     0.2800 </r>
       <r>    -7.3925     0.0000     0.2800 </r>
       <r>    -7.3174     0.0006     0.2800 </r>
       <r>    -7.2423     0.0093     0.2807 </r>
       <r>    -7.1673    -0.0234     0.2790 </r>
       <r>    -7.0922    -0.1382     0.2686 </r>
       <r>    -7.0171     1.3993     0.3736 </r>
       <r>    -6.9421     1.9644     0.5211 </r>
       <r>    -6.8670     0.0476     0.5247 </r>
       <r>    -6.7920    -0.0675     0.5196 </r>
       <r>    -6.7169    -0.0052     0.5192 </r>
       <r>    -6.6418    -0.1478     0.5081 </r>
       <r>    -6.5668     1.3136     0.6067 </r>
       <r>    -6.4917     2.0240     0.7586 </r>
       <r>    -6.4167     0.0879     0.7652 </r>
       <r>    -6.3416    -0.0847     0.7589 </r>
       <r>    -6.2665     0.0133     0.7599 </r>
       <r>    -6.1915     0.0017     0.7600 </r>
       <r>    -6.1164     0.0000     0.7600 </r>
       <r>    -6.0413     0.0000     0.7600 </r>
       <r>    -5.9663     0.0009     0.7601 </r>
       <r>    -5.8912     0.0004     0.7601 </r>
       <r>    -5.8162    -0.0270     0.7581 </r>
       <r>    -5.7411     0.1533     0.7696 </r>
       <r>    -5.6660     0.3337     0.7946 </r>
       <r>    -5.5910    -0.0034     0.7944 </r>
       <r>    -5.5159     1.5226     0.9087 </r>
       <r>    -5.4408     1.9285     1.0534 </r>
       <r>    -5.3658     2.7538     1.2601 </r>
       <r>    -5.2907     3.1375     1.4956 </r>
       <r>    -5.2157     0.4595     1.5301 </r>
       <r>    -5.1406    -0.1526     1.5187 </r>
       <r>    -5.0655     0.0278     1.5208 </r>
       <r>    -4.9905    -0.0781     1.5149 </r>
       <r>    -4.9154     0.0912     1.5217 </r>
       <r>    -4.8404     1.9855     1.6708 </r>
       <r>    -4.7653     1.2141     1.7619 </r>
       <r>    -4.6902     1.3303     1.8618 </r>
       <r>    -4.6152     1.7347     1.9920 </r>
       <r>    -4.5401     1.2160     2.0832 </r>
       <r>    -4.4650     2.7134     2.2869 </r>
       <r>    -4.3900     2.1185     2.4459 </r>
       <r>    -4.3149     0.5494     2.4872 </r>
       <r>    -4.2399     5.6899     2.9143 </r>
       <r>    -4.1648     4.1443     3.2254 </r>
       <r>    -4.0897    -0.4778     3.1895 </r>
       <r>    -4.0147     3.4913     3.4516 </r>
       <r>    -3.9396     4.0406     3.7549 </r>
       <r>    -3.8645     0.1717     3.7677 </r>
       <r>    -3.7895    -0.3808     3.7392 </r>
       <r>    -3.7144     2.3261     3.9138 </r>
       <r>    -3.6394     5.2904     4.3109 </r>
       <r>    -3.5643     3.7179     4.5899 </r>
       <r>    -3.4892     3.0661     4.8201 </r>
       <r>    -3.4142     3.4308     5.0776 </r>
       <r>    -3.3391     3.9977     5.3777 </r>
       <r>    -3.2641     2.0926     5.5347 </r>
       <r>    -3.1890     4.8470     5.8986 </r>
       <r>    -3.1139     5.6184     6.3203 </r>
       <r>    -3.0389     2.6042     6.5158 </r>
       <r>    -2.9638     3.7251     6.7954 </r>
       <r>    -2.8887     5.5740     7.2138 </r>
       <r>    -2.8137     4.7796     7.5726 </r>
       <r>    -2.7386     3.9279     7.8674 </r>
       <r>    -2.6636     5.4653     8.2776 </r>
       <r>    -2.5885     8.3629     8.9054 </r>
       <r>    -2.5134     5.6153     9.3269 </r>
       <r>    -2.4384     7.4764     9.8881 </r>
       <r>    -2.3633    11.1808    10.7273 </r>
       <r>    -2.2882    10.8791    11.5439 </r>
       <r>    -2.2132     6.6041    12.0396 </r>
       <r>    -2.1381     5.0021    12.4151 </r>
       <r>    -2.0631     4.6227    12.7621 </r>
       <r>    -1.9880     3.3340    13.0123 </r>
       <r>    -1.9129     2.7366    13.2178 </r>
       <r>    -1.8379     1.4037    13.3231 </r>
       <r>    -1.7628     4.6579    13.6728 </r>
       <r>    -1.6878     7.8291    14.2604 </r>
       <r>    -1.6127     6.2189    14.7272 </r>
       <r>    -1.5376     6.1697    15.1903 </r>
       <r>    -1.4626     3.8787    15.4815 </r>
       <r>    -1.3875     4.6351    15.8294 </r>
       <r>    -1.3124     3.9103    16.1229 </r>
       <r>    -1.2374     2.5493    16.3143 </r>
       <r>    -1.1623     6.1352    16.7748 </r>
       <r>    -1.0873     6.7306    17.2800 </r>
       <r>    -1.0122     3.9943    17.5798 </r>
       <r>    -0.9371     4.5025    17.9178 </r>
       <r>    -0.8621     1.2416    18.0110 </r>
       <r>    -0.7870     3.3874    18.2652 </r>
       <r>    -0.7119     6.9576    18.7875 </r>
       <r>    -0.6369     5.7334    19.2179 </r>
       <r>    -0.5618     3.2540    19.4621 </r>
       <r>    -0.4868     0.4670    19.4972 </r>
       <r>    -0.4117     3.7740    19.7805 </r>
       <r>    -0.3366     5.8176    20.2171 </r>
       <r>    -0.2616     5.9466    20.6635 </r>
       <r>    -0.1865     7.3793    21.2174 </r>
       <r>    -0.1115     6.4143    21.6989 </r>
       <r>    -0.0364     4.7948    22.0588 </r>
       <r>     0.0387     7.2143    22.6003 </r>
       <r>     0.1137     8.6603    23.2504 </r>
       <r>     0.1888    11.9667    24.1486 </r>
       <r>     0.2639    12.6278    25.0965 </r>
       <r>     0.3389    10.2423    25.8653 </r>
       <r>     0.4140    11.3971    26.7208 </r>
       <r>     0.4890     8.9040    27.3891 </r>
       <r>     0.5641     7.5309    27.9544 </r>
       <r>     0.6392    11.1666    28.7926 </r>
       <r>     0.7142    11.8653    29.6832 </r>
       <r>     0.7893    12.0069    30.5845 </r>
       <r>     0.8644     5.1828    30.9735 </r>
       <r>     0.9394     0.5027    31.0112 </r>
       <r>     1.0145    -0.1835    30.9975 </r>
       <r>     1.0895     0.0257    30.9994 </r>
       <r>     1.1646     0.0079    31.0000 </r>
       <r>     1.2397     0.0003    31.0000 </r>
       <r>     1.3147     0.0000    31.0000 </r>
       <r>     1.3898     0.0000    31.0000 </r>
       <r>     1.4648     0.0000    31.0000 </r>
       <r>     1.5399     0.0000    31.0000 </r>
       <r>     1.6150     0.0000    31.0000 </r>
       <r>     1.6900     0.0000    31.0000 </r>
       <r>     1.7651     0.0000    31.0000 </r>
       <r>     1.8402     0.0000    31.0000 </r>
       <r>     1.9152     0.0000    31.0000 </r>
       <r>     1.9903     0.0000    31.0000 </r>
       <r>     2.0653     0.0000    31.0000 </r>
       <r>     2.1404     0.0000    31.0000 </r>
       <r>     2.2155     0.0000    31.0000 </r>
       <r>     2.2905     0.0000    31.0000 </r>
       <r>     2.3656     0.0000    31.0000 </r>
       <r>     2.4406     0.0000    31.0000 </r>
       <r>     2.5157     0.0000    31.0000 </r>
       <r>     2.5908     0.0000    31.0000 </r>
       <r>     2.6658     0.0000    31.0000 </r>
       <r>     2.7409     0.0000    31.0000 </r>
       <r>     2.8160     0.0000    31.0000 </r>
       <r>     2.8910     0.0000    31.0000 </r>
       <r>     2.9661     0.0000    31.0000 </r>
       <r>     3.0411     0.0000    31.0000 </r>
       <r>     3.1162     0.0000    31.0000 </r>
       <r>     3.1913     0.0000    31.0000 </r>
       <r>     3.2663     0.0000    31.0000 </r>
       <r>     3.3414     0.0000    31.0000 </r>
       <r>     3.4165     0.0000    31.0000 </r>
       <r>     3.4915     0.0000    31.0000 </r>
       <r>     3.5666     0.0000    31.0000 </r>
       <r>     3.6416     0.0000    31.0000 </r>
       <r>     3.7167     0.0000    31.0000 </r>
       <r>     3.7918     0.0000    31.0000 </r>
       <r>     3.8668     0.0000    31.0000 </r>
       <r>     3.9419     0.0000    31.0000 </r>
       <r>     4.0169     0.0000    31.0000 </r>
       <r>     4.0920     0.0000    31.0000 </r>
       <r>     4.1671     0.0000    31.0000 </r>
       <r>     4.2421     0.0000    31.0000 </r>
       <r>     4.3172     0.0000    31.0000 </r>
       <r>     4.3923     0.0000    31.0000 </r>
       <r>     4.4673     0.0000    31.0000 </r>
       <r>     4.5424     0.0000    31.0000 </r>
       <r>     4.6174     0.0000    31.0000 </r>
       <r>     4.6925     0.0000    31.0000 </r>
       <r>     4.7676     0.0000    31.0000 </r>
       <r>     4.8426     0.0000    31.0000 </r>
       <r>     4.9177     0.0000    31.0000 </r>
       <r>     4.9928     0.0000    31.0000 </r>
       <r>     5.0678     0.0000    31.0000 </r>
       <r>     5.1429     0.0000    31.0000 </r>
       <r>     5.2179     0.0000    31.0000 </r>
       <r>     5.2930     0.0000    31.0000 </r>
       <r>     5.3681     0.0000    31.0000 </r>
       <r>     5.4431     0.0000    31.0000 </r>
       <r>     5.5182     0.0000    31.0000 </r>
       <r>     5.5932     0.0000    31.0000 </r>
       <r>     5.6683     0.0000    31.0000 </r>
       <r>     5.7434     0.0000    31.0000 </r>
       <r>     5.8184     0.0000    31.0000 </r>
       <r>     5.8935     0.0000    31.0000 </r>
       <r>     5.9686     0.0000    31.0000 </r>
       <r>     6.0436     0.0000    31.0000 </r>
       <r>     6.1187     0.0000    31.0000 </r>
       <r>     6.1937     0.0000    31.0000 </r>
       <r>     6.2688     0.0000    31.0000 </r>
       <r>     6.3439     0.0000    31.0000 </r>
       <r>     6.4189     0.0000    31.0000 </r>
       <r>     6.4940     0.0000    31.0000 </r>
       <r>     6.5691     0.0000    31.0000 </r>
       <r>     6.6441     0.0000    31.0000 </r>
       <r>     6.7192     0.0000    31.0000 </r>
       <r>     6.7942     0.0000    31.0000 </r>
       <r>     6.8693     0.0000    31.0000 </r>
       <r>     6.9444     0.0000    31.0000 </r>
       <r>     7.0194     0.0000    31.0000 </r>
       <r>     7.0945     0.0000    31.0000 </r>
       <r>     7.1695     0.0000    31.0000 </r>
       <r>     7.2446     0.0000    31.0000 </r>
       <r>     7.3197     0.0000    31.0000 </r>
       <r>     7.3947     0.0000    31.0000 </r>
       <r>     7.4698     0.0000    31.0000 </r>
       <r>     7.5449     0.0000    31.0000 </r>
       <r>     7.6199     0.0000    31.0000 </r>
       <r>     7.6950     0.0000    31.0000 </r>
       <r>     7.7700     0.0000    31.0000 </r>
       <r>     7.8451     0.0000    31.0000 </r>
       <r>     7.9202     0.0000    31.0000 </r>
       <r>     7.9952     0.0000    31.0000 </r>
       <r>     8.0703     0.0000    31.0000 </r>
       <r>     8.1454     0.0000    31.0000 </r>
       <r>     8.2204     0.0000    31.0000 </r>
       <r>     8.2955     0.0000    31.0000 </r>
       <r>     8.3705     0.0000    31.0000 </r>
       <r>     8.4456     0.0000    31.0000 </r>
       <r>     8.5207     0.0000    31.0000 </r>
       <r>     8.5957     0.0000    31.0000 </r>
       <r>     8.6708     0.0000    31.0000 </r>
       <r>     8.7458     0.0000    31.0000 </r>
       <r>     8.8209     0.0000    31.0000 </r>
       <r>     8.8960     0.0000    31.0000 </r>
       <r>     8.9710     0.0000    31.0000 </r>
       <r>     9.0461     0.0000    31.0000 </r>
       <r>     9.1212     0.0000    31.0000 </r>
       <r>     9.1962     0.0000    31.0000 </r>
       <r>     9.2713     0.0000    31.0000 </r>
       <r>     9.3463     0.0000    31.0000 </r>
       <r>     9.4214     0.0000    31.0000 </r>
       <r>     9.4965     0.0000    31.0000 </r>
       <r>     9.5715     0.0000    31.0000 </r>
       <r>     9.6466     0.0000    31.0000 </r>
       <r>     9.7217     0.0000    31.0000 </r>
       <r>     9.7967     0.0000    31.0000 </r>
       <r>     9.8718     0.0000    31.0000 </r>
       <r>     9.9468     0.0000    31.0000 </r>
       <r>    10.0219     0.0000    31.0000 </r>
       <r>    10.0970     0.0000    31.0000 </r>
       <r>    10.1720     0.0000    31.0000 </r>
       <r>    10.2471     0.0000    31.0000 </r>
       <r>    10.3221     0.0000    31.0000 </r>
       <r>    10.3972     0.0000    31.0000 </r>
       <r>    10.4723     0.0000    31.0000 </r>
       <r>    10.5473     0.0000    31.0000 </r>
       <r>    10.6224     0.0000    31.0000 </r>
       <r>    10.6975     0.0000    31.0000 </r>
       <r>    10.7725     0.0000    31.0000 </r>
       <r>    10.8476     0.0000    31.0000 </r>
       <r>    10.9226     0.0000    31.0000 </r>
       <r>    10.9977     0.0000    31.0000 </r>
       <r>    11.0728     0.0000    31.0000 </r>
       <r>    11.1478     0.0000    31.0000 </r>
       <r>    11.2229     0.0000    31.0000 </r>
       <r>    11.2980     0.0000    31.0000 </r>
       <r>    11.3730     0.0000    31.0000 </r>
       <r>    11.4481     0.0000    31.0000 </r>
       <r>    11.5231     0.0000    31.0000 </r>
      </set>
     </set>
    </array>
   </total>
  </dos>
 </calculation>
 <structure name="finalpos" >
  <crystal>
   <varray name="basis" >
    <v>       3.98651217       0.00000000       0.00000000 </v>
    <v>       1.99325608       3.45242081       0.00000000 </v>
    <v>       0.00000000       0.00000000      18.00000000 </v>
   </varray>
   <i name="volume">    247.73611635 </i>
   <varray name="rec_basis" >
    <v>       0.25084584      -0.14482591       0.00000000 </v>
    <v>       0.00000000       0.28965183       0.00000000 </v>
    <v>       0.00000000       0.00000000       0.05555556 </v>
   </varray>
  </crystal>
  <varray name="positions" >
   <v>       0.00000000       0.00000000       0.00000000 </v>
   <v>       0.33344853       0.33347615       0.04522778 </v>
   <v>       0.66682407       0.66676780       0.07995628 </v>
   <v>       0.00018728       0.00003505       0.13522780 </v>
   <v>       0.33366217       0.33341744       0.17329151 </v>
   <v>       0.66697505       0.66669259       0.21139818 </v>
  </varray>
  <varray name="selective"  type="logical" >
   <v type="logical" >  F  F  F </v>
   <v type="logical" >  F  F  F </v>
   <v type="logical" >  T  T  T </v>
   <v type="logical" >  T  T  T </v>
   <v type="logical" >  T  T  T </v>
   <v type="logical" >  T  T  T </v>
  </varray>
  <nose>
   <v>      -3.00000000       0.00000000       0.00010000       0.00010000 </v>
  </nose>
 </structure>
</modeling>
