   2   2   0   0
  0.1830578E+02  0.3320520E-09  0.3320520E-09  0.3320520E-09  0.5000000E-15
  1.000000000000000E-004
  CAR 
 Crystal                                 
     39.34295605    -25.62924464  301      4.75333544      1.00000000
    -25.629  0.3490E-01  0.3490E-01  0.7559E-02  0.7559E-02
    -25.413  0.1642E-01  0.1642E-01  0.1111E-01  0.1111E-01
    -25.196  0.1763E-01  0.1763E-01  0.1493E-01  0.1493E-01
    -24.980  0.2313E-01  0.2313E-01  0.1994E-01  0.1994E-01
    -24.763  0.2555E-03  0.2556E-03  0.2000E-01  0.2000E-01
    -24.546  0.1038E-04  0.1038E-04  0.2000E-01  0.2000E-01
    -24.330  0.3108E-10  0.3109E-10  0.2000E-01  0.2000E-01
    -24.113  0.0000E+00  0.0000E+00  0.2000E-01  0.2000E-01
    -23.897  0.0000E+00  0.0000E+00  0.2000E-01  0.2000E-01
    -23.680  0.0000E+00  0.0000E+00  0.2000E-01  0.2000E-01
    -23.464  0.0000E+00  0.0000E+00  0.2000E-01  0.2000E-01
    -23.247  0.0000E+00  0.0000E+00  0.2000E-01  0.2000E-01
    -23.030  0.0000E+00  0.0000E+00  0.2000E-01  0.2000E-01
    -22.814  0.0000E+00  0.0000E+00  0.2000E-01  0.2000E-01
    -22.597  0.0000E+00  0.0000E+00  0.2000E-01  0.2000E-01
    -22.381  0.0000E+00  0.0000E+00  0.2000E-01  0.2000E-01
    -22.164  0.0000E+00  0.0000E+00  0.2000E-01  0.2000E-01
    -21.947  0.0000E+00  0.0000E+00  0.2000E-01  0.2000E-01
    -21.731  0.0000E+00  0.0000E+00  0.2000E-01  0.2000E-01
    -21.514  0.0000E+00  0.0000E+00  0.2000E-01  0.2000E-01
    -21.298  0.0000E+00  0.0000E+00  0.2000E-01  0.2000E-01
    -21.081  0.0000E+00  0.0000E+00  0.2000E-01  0.2000E-01
    -20.865  0.0000E+00  0.0000E+00  0.2000E-01  0.2000E-01
    -20.648  0.0000E+00  0.0000E+00  0.2000E-01  0.2000E-01
    -20.431  0.0000E+00  0.0000E+00  0.2000E-01  0.2000E-01
    -20.215  0.0000E+00  0.0000E+00  0.2000E-01  0.2000E-01
    -19.998  0.0000E+00  0.0000E+00  0.2000E-01  0.2000E-01
    -19.782  0.0000E+00  0.0000E+00  0.2000E-01  0.2000E-01
    -19.565  0.0000E+00  0.0000E+00  0.2000E-01  0.2000E-01
    -19.349  0.0000E+00  0.0000E+00  0.2000E-01  0.2000E-01
    -19.132  0.0000E+00  0.0000E+00  0.2000E-01  0.2000E-01
    -18.915  0.0000E+00  0.0000E+00  0.2000E-01  0.2000E-01
    -18.699  0.0000E+00  0.0000E+00  0.2000E-01  0.2000E-01
    -18.482  0.0000E+00  0.0000E+00  0.2000E-01  0.2000E-01
    -18.266  0.0000E+00  0.0000E+00  0.2000E-01  0.2000E-01
    -18.049  0.0000E+00  0.0000E+00  0.2000E-01  0.2000E-01
    -17.833  0.0000E+00  0.0000E+00  0.2000E-01  0.2000E-01
    -17.616  0.0000E+00  0.0000E+00  0.2000E-01  0.2000E-01
    -17.399  0.0000E+00  0.0000E+00  0.2000E-01  0.2000E-01
    -17.183  0.0000E+00  0.0000E+00  0.2000E-01  0.2000E-01
    -16.966  0.0000E+00  0.0000E+00  0.2000E-01  0.2000E-01
    -16.750  0.0000E+00  0.0000E+00  0.2000E-01  0.2000E-01
    -16.533  0.0000E+00  0.0000E+00  0.2000E-01  0.2000E-01
    -16.317  0.0000E+00  0.0000E+00  0.2000E-01  0.2000E-01
    -16.100  0.0000E+00  0.0000E+00  0.2000E-01  0.2000E-01
    -15.883  0.0000E+00  0.0000E+00  0.2000E-01  0.2000E-01
    -15.667  0.0000E+00  0.0000E+00  0.2000E-01  0.2000E-01
    -15.450  0.0000E+00  0.0000E+00  0.2000E-01  0.2000E-01
    -15.234  0.0000E+00  0.0000E+00  0.2000E-01  0.2000E-01
    -15.017  0.0000E+00  0.0000E+00  0.2000E-01  0.2000E-01
    -14.801  0.0000E+00  0.0000E+00  0.2000E-01  0.2000E-01
    -14.584  0.0000E+00  0.0000E+00  0.2000E-01  0.2000E-01
    -14.367  0.0000E+00  0.0000E+00  0.2000E-01  0.2000E-01
    -14.151  0.0000E+00  0.0000E+00  0.2000E-01  0.2000E-01
    -13.934  0.0000E+00  0.0000E+00  0.2000E-01  0.2000E-01
    -13.718  0.0000E+00  0.0000E+00  0.2000E-01  0.2000E-01
    -13.501  0.0000E+00  0.0000E+00  0.2000E-01  0.2000E-01
    -13.285  0.0000E+00  0.0000E+00  0.2000E-01  0.2000E-01
    -13.068  0.0000E+00  0.0000E+00  0.2000E-01  0.2000E-01
    -12.851  0.0000E+00  0.0000E+00  0.2000E-01  0.2000E-01
    -12.635  0.0000E+00  0.0000E+00  0.2000E-01  0.2000E-01
    -12.418  0.0000E+00  0.0000E+00  0.2000E-01  0.2000E-01
    -12.202  0.0000E+00  0.0000E+00  0.2000E-01  0.2000E-01
    -11.985  0.0000E+00  0.0000E+00  0.2000E-01  0.2000E-01
    -11.769  0.0000E+00  0.0000E+00  0.2000E-01  0.2000E-01
    -11.552  0.0000E+00  0.0000E+00  0.2000E-01  0.2000E-01
    -11.335  0.0000E+00  0.0000E+00  0.2000E-01  0.2000E-01
    -11.119  0.0000E+00  0.0000E+00  0.2000E-01  0.2000E-01
    -10.902  0.0000E+00  0.0000E+00  0.2000E-01  0.2000E-01
    -10.686  0.0000E+00  0.0000E+00  0.2000E-01  0.2000E-01
    -10.469  0.0000E+00  0.0000E+00  0.2000E-01  0.2000E-01
    -10.252  0.0000E+00  0.0000E+00  0.2000E-01  0.2000E-01
    -10.036  0.0000E+00  0.0000E+00  0.2000E-01  0.2000E-01
     -9.819  0.0000E+00  0.0000E+00  0.2000E-01  0.2000E-01
     -9.603  0.0000E+00  0.0000E+00  0.2000E-01  0.2000E-01
     -9.386  0.0000E+00  0.0000E+00  0.2000E-01  0.2000E-01
     -9.170  0.0000E+00  0.0000E+00  0.2000E-01  0.2000E-01
     -8.953  0.0000E+00  0.0000E+00  0.2000E-01  0.2000E-01
     -8.736  0.0000E+00  0.0000E+00  0.2000E-01  0.2000E-01
     -8.520  0.0000E+00  0.0000E+00  0.2000E-01  0.2000E-01
     -8.303  0.0000E+00  0.0000E+00  0.2000E-01  0.2000E-01
     -8.087  0.0000E+00  0.0000E+00  0.2000E-01  0.2000E-01
     -7.870  0.0000E+00  0.0000E+00  0.2000E-01  0.2000E-01
     -7.654  0.0000E+00  0.0000E+00  0.2000E-01  0.2000E-01
     -7.437  0.0000E+00  0.0000E+00  0.2000E-01  0.2000E-01
     -7.220  0.0000E+00  0.0000E+00  0.2000E-01  0.2000E-01
     -7.004  0.0000E+00  0.0000E+00  0.2000E-01  0.2000E-01
     -6.787  0.0000E+00  0.0000E+00  0.2000E-01  0.2000E-01
     -6.571  0.0000E+00  0.0000E+00  0.2000E-01  0.2000E-01
     -6.354  0.0000E+00  0.0000E+00  0.2000E-01  0.2000E-01
     -6.138  0.0000E+00  0.0000E+00  0.2000E-01  0.2000E-01
     -5.921  0.0000E+00  0.0000E+00  0.2000E-01  0.2000E-01
     -5.704  0.0000E+00  0.0000E+00  0.2000E-01  0.2000E-01
     -5.488  0.0000E+00  0.0000E+00  0.2000E-01  0.2000E-01
     -5.271  0.0000E+00  0.0000E+00  0.2000E-01  0.2000E-01
     -5.055  0.0000E+00  0.0000E+00  0.2000E-01  0.2000E-01
     -4.838  0.0000E+00  0.0000E+00  0.2000E-01  0.2000E-01
     -4.622  0.0000E+00  0.0000E+00  0.2000E-01  0.2000E-01
     -4.405  0.0000E+00  0.0000E+00  0.2000E-01  0.2000E-01
     -4.188  0.0000E+00  0.0000E+00  0.2000E-01  0.2000E-01
     -3.972  0.0000E+00  0.0000E+00  0.2000E-01  0.2000E-01
     -3.755  0.0000E+00  0.0000E+00  0.2000E-01  0.2000E-01
     -3.539  0.0000E+00  0.0000E+00  0.2000E-01  0.2000E-01
     -3.322  0.0000E+00  0.0000E+00  0.2000E-01  0.2000E-01
     -3.106  0.0000E+00  0.0000E+00  0.2000E-01  0.2000E-01
     -2.889  0.0000E+00  0.0000E+00  0.2000E-01  0.2000E-01
     -2.672  0.0000E+00  0.0000E+00  0.2000E-01  0.2000E-01
     -2.456  0.0000E+00  0.0000E+00  0.2000E-01  0.2000E-01
     -2.239  0.0000E+00  0.0000E+00  0.2000E-01  0.2000E-01
     -2.023  0.6147E-40  0.6147E-40  0.2000E-01  0.2000E-01
     -1.806  0.9328E-25  0.9328E-25  0.2000E-01  0.2000E-01
     -1.590  0.8555E-14  0.8554E-14  0.2000E-01  0.2000E-01
     -1.373  0.2651E-07  0.2651E-07  0.2000E-01  0.2000E-01
     -1.156 -0.7102E-06 -0.7102E-06  0.2000E-01  0.2000E-01
     -0.940  0.4652E-04  0.4652E-04  0.2001E-01  0.2001E-01
     -0.723  0.2902E-04  0.2902E-04  0.2002E-01  0.2002E-01
     -0.507  0.2414E-03  0.2414E-03  0.2007E-01  0.2007E-01
     -0.290  0.3875E-03  0.3875E-03  0.2015E-01  0.2015E-01
     -0.074  0.1327E-03  0.1327E-03  0.2018E-01  0.2018E-01
      0.143  0.3938E-03  0.3938E-03  0.2027E-01  0.2027E-01
      0.360  0.2650E-05  0.2649E-05  0.2027E-01  0.2027E-01
      0.576  0.2369E-03  0.2369E-03  0.2032E-01  0.2032E-01
      0.793  0.1080E-02  0.1080E-02  0.2055E-01  0.2055E-01
      1.009  0.1097E-02  0.1097E-02  0.2079E-01  0.2079E-01
      1.226  0.9293E-03  0.9294E-03  0.2099E-01  0.2099E-01
      1.443  0.1215E-02  0.1215E-02  0.2125E-01  0.2125E-01
      1.659  0.3542E-02  0.3542E-02  0.2202E-01  0.2202E-01
      1.876  0.6280E-02  0.6280E-02  0.2338E-01  0.2338E-01
      2.092  0.2355E-02  0.2355E-02  0.2389E-01  0.2389E-01
      2.309  0.3950E-02  0.3950E-02  0.2475E-01  0.2475E-01
      2.525  0.4071E-02  0.4071E-02  0.2563E-01  0.2563E-01
      2.742  0.7310E-02  0.7310E-02  0.2721E-01  0.2721E-01
      2.959  0.5395E-04  0.5394E-04  0.2722E-01  0.2722E-01
      3.175  0.1427E-02  0.1427E-02  0.2753E-01  0.2753E-01
      3.392  0.5639E-02  0.5639E-02  0.2875E-01  0.2875E-01
      3.608  0.8391E-02  0.8391E-02  0.3057E-01  0.3057E-01
      3.825  0.5988E-02  0.5988E-02  0.3187E-01  0.3187E-01
      4.041  0.2224E-02  0.2224E-02  0.3235E-01  0.3235E-01
      4.258  0.4647E-02  0.4647E-02  0.3336E-01  0.3336E-01
      4.475  0.4445E-02  0.4445E-02  0.3432E-01  0.3432E-01
      4.691  0.8508E-02  0.8508E-02  0.3616E-01  0.3616E-01
      4.908  0.5913E-02  0.5913E-02  0.3744E-01  0.3744E-01
      5.124  0.3011E-02  0.3011E-02  0.3809E-01  0.3809E-01
      5.341  0.2672E-02  0.2671E-02  0.3867E-01  0.3867E-01
      5.557  0.6821E-03  0.6821E-03  0.3882E-01  0.3882E-01
      5.774  0.1067E-02  0.1067E-02  0.3905E-01  0.3905E-01
      5.991  0.1836E-02  0.1836E-02  0.3945E-01  0.3945E-01
      6.207  0.1136E-02  0.1136E-02  0.3969E-01  0.3969E-01
      6.424  0.3745E-02  0.3745E-02  0.4051E-01  0.4051E-01
      6.640  0.2168E-02  0.2168E-02  0.4098E-01  0.4098E-01
      6.857  0.4012E-02  0.4012E-02  0.4184E-01  0.4184E-01
      7.073  0.2084E-02  0.2084E-02  0.4230E-01  0.4230E-01
      7.290  0.1467E-02  0.1467E-02  0.4261E-01  0.4261E-01
      7.507  0.4667E-02  0.4667E-02  0.4362E-01  0.4362E-01
      7.723  0.5612E-02  0.5612E-02  0.4484E-01  0.4484E-01
      7.940  0.5210E-02  0.5210E-02  0.4597E-01  0.4597E-01
      8.156  0.5459E-02  0.5459E-02  0.4715E-01  0.4715E-01
      8.373  0.4176E-02  0.4176E-02  0.4805E-01  0.4805E-01
      8.589  0.4857E-02  0.4857E-02  0.4911E-01  0.4911E-01
      8.806  0.1003E-01  0.1003E-01  0.5128E-01  0.5128E-01
      9.023  0.4030E-02  0.4038E-02  0.5215E-01  0.5215E-01
      9.239  0.3606E-02  0.3599E-02  0.5293E-01  0.5293E-01
      9.456  0.1207E-02  0.1207E-02  0.5319E-01  0.5319E-01
      9.672  0.5814E-03  0.5814E-03  0.5332E-01  0.5332E-01
      9.889 -0.2773E-04 -0.2773E-04  0.5331E-01  0.5331E-01
     10.105 -0.3459E-05 -0.3459E-05  0.5331E-01  0.5331E-01
     10.322  0.9789E-04  0.9789E-04  0.5333E-01  0.5333E-01
     10.539 -0.4628E-05 -0.4628E-05  0.5333E-01  0.5333E-01
     10.755  0.1301E-07  0.1301E-07  0.5333E-01  0.5333E-01
     10.972  0.9035E-15  0.9034E-15  0.5333E-01  0.5333E-01
     11.188  0.0000E+00  0.0000E+00  0.5333E-01  0.5333E-01
     11.405  0.0000E+00  0.0000E+00  0.5333E-01  0.5333E-01
     11.621  0.0000E+00  0.0000E+00  0.5333E-01  0.5333E-01
     11.838  0.0000E+00  0.0000E+00  0.5333E-01  0.5333E-01
     12.055  0.0000E+00  0.0000E+00  0.5333E-01  0.5333E-01
     12.271  0.0000E+00  0.0000E+00  0.5333E-01  0.5333E-01
     12.488  0.0000E+00  0.0000E+00  0.5333E-01  0.5333E-01
     12.704  0.0000E+00  0.0000E+00  0.5333E-01  0.5333E-01
     12.921  0.0000E+00  0.0000E+00  0.5333E-01  0.5333E-01
     13.138  0.0000E+00  0.0000E+00  0.5333E-01  0.5333E-01
     13.354  0.0000E+00  0.0000E+00  0.5333E-01  0.5333E-01
     13.571  0.0000E+00  0.0000E+00  0.5333E-01  0.5333E-01
     13.787  0.0000E+00  0.0000E+00  0.5333E-01  0.5333E-01
     14.004  0.0000E+00  0.0000E+00  0.5333E-01  0.5333E-01
     14.220  0.0000E+00  0.0000E+00  0.5333E-01  0.5333E-01
     14.437  0.0000E+00  0.0000E+00  0.5333E-01  0.5333E-01
     14.654  0.0000E+00  0.0000E+00  0.5333E-01  0.5333E-01
     14.870  0.0000E+00  0.0000E+00  0.5333E-01  0.5333E-01
     15.087  0.0000E+00  0.0000E+00  0.5333E-01  0.5333E-01
     15.303  0.0000E+00  0.0000E+00  0.5333E-01  0.5333E-01
     15.520  0.0000E+00  0.0000E+00  0.5333E-01  0.5333E-01
     15.736  0.0000E+00  0.0000E+00  0.5333E-01  0.5333E-01
     15.953  0.0000E+00  0.0000E+00  0.5333E-01  0.5333E-01
     16.170  0.0000E+00  0.0000E+00  0.5333E-01  0.5333E-01
     16.386  0.0000E+00  0.0000E+00  0.5333E-01  0.5333E-01
     16.603  0.0000E+00  0.0000E+00  0.5333E-01  0.5333E-01
     16.819  0.0000E+00  0.0000E+00  0.5333E-01  0.5333E-01
     17.036  0.0000E+00  0.0000E+00  0.5333E-01  0.5333E-01
     17.252  0.0000E+00  0.0000E+00  0.5333E-01  0.5333E-01
     17.469  0.0000E+00  0.0000E+00  0.5333E-01  0.5333E-01
     17.686  0.0000E+00  0.0000E+00  0.5333E-01  0.5333E-01
     17.902  0.0000E+00  0.0000E+00  0.5333E-01  0.5333E-01
     18.119  0.0000E+00  0.0000E+00  0.5333E-01  0.5333E-01
     18.335  0.0000E+00  0.0000E+00  0.5333E-01  0.5333E-01
     18.552  0.0000E+00  0.0000E+00  0.5333E-01  0.5333E-01
     18.768  0.0000E+00  0.0000E+00  0.5333E-01  0.5333E-01
     18.985  0.0000E+00  0.0000E+00  0.5333E-01  0.5333E-01
     19.202  0.0000E+00  0.0000E+00  0.5333E-01  0.5333E-01
     19.418  0.0000E+00  0.0000E+00  0.5333E-01  0.5333E-01
     19.635  0.0000E+00  0.0000E+00  0.5333E-01  0.5333E-01
     19.851  0.0000E+00  0.0000E+00  0.5333E-01  0.5333E-01
     20.068  0.0000E+00  0.0000E+00  0.5333E-01  0.5333E-01
     20.284  0.0000E+00  0.0000E+00  0.5333E-01  0.5333E-01
     20.501  0.0000E+00  0.0000E+00  0.5333E-01  0.5333E-01
     20.718  0.0000E+00  0.0000E+00  0.5333E-01  0.5333E-01
     20.934  0.0000E+00  0.0000E+00  0.5333E-01  0.5333E-01
     21.151  0.0000E+00  0.0000E+00  0.5333E-01  0.5333E-01
     21.367  0.0000E+00  0.0000E+00  0.5333E-01  0.5333E-01
     21.584  0.0000E+00  0.0000E+00  0.5333E-01  0.5333E-01
     21.800  0.0000E+00  0.0000E+00  0.5333E-01  0.5333E-01
     22.017  0.0000E+00  0.0000E+00  0.5333E-01  0.5333E-01
     22.234  0.0000E+00  0.0000E+00  0.5333E-01  0.5333E-01
     22.450  0.0000E+00  0.0000E+00  0.5333E-01  0.5333E-01
     22.667  0.0000E+00  0.0000E+00  0.5333E-01  0.5333E-01
     22.883  0.0000E+00  0.0000E+00  0.5333E-01  0.5333E-01
     23.100  0.0000E+00  0.0000E+00  0.5333E-01  0.5333E-01
     23.316  0.0000E+00  0.0000E+00  0.5333E-01  0.5333E-01
     23.533  0.0000E+00  0.0000E+00  0.5333E-01  0.5333E-01
     23.750  0.0000E+00  0.0000E+00  0.5333E-01  0.5333E-01
     23.966  0.0000E+00  0.0000E+00  0.5333E-01  0.5333E-01
     24.183  0.0000E+00  0.0000E+00  0.5333E-01  0.5333E-01
     24.399  0.0000E+00  0.0000E+00  0.5333E-01  0.5333E-01
     24.616  0.0000E+00  0.0000E+00  0.5333E-01  0.5333E-01
     24.832  0.0000E+00  0.0000E+00  0.5333E-01  0.5333E-01
     25.049  0.0000E+00  0.0000E+00  0.5333E-01  0.5333E-01
     25.266  0.0000E+00  0.0000E+00  0.5333E-01  0.5333E-01
     25.482  0.0000E+00  0.0000E+00  0.5333E-01  0.5333E-01
     25.699  0.0000E+00  0.0000E+00  0.5333E-01  0.5333E-01
     25.915  0.0000E+00  0.0000E+00  0.5333E-01  0.5333E-01
     26.132  0.0000E+00  0.0000E+00  0.5333E-01  0.5333E-01
     26.349  0.0000E+00  0.0000E+00  0.5333E-01  0.5333E-01
     26.565  0.0000E+00  0.0000E+00  0.5333E-01  0.5333E-01
     26.782  0.0000E+00  0.0000E+00  0.5333E-01  0.5333E-01
     26.998  0.0000E+00  0.0000E+00  0.5333E-01  0.5333E-01
     27.215  0.0000E+00  0.0000E+00  0.5333E-01  0.5333E-01
     27.431  0.0000E+00  0.0000E+00  0.5333E-01  0.5333E-01
     27.648  0.0000E+00  0.0000E+00  0.5333E-01  0.5333E-01
     27.865  0.0000E+00  0.0000E+00  0.5333E-01  0.5333E-01
     28.081  0.0000E+00  0.0000E+00  0.5333E-01  0.5333E-01
     28.298  0.0000E+00  0.0000E+00  0.5333E-01  0.5333E-01
     28.514  0.0000E+00  0.0000E+00  0.5333E-01  0.5333E-01
     28.731  0.0000E+00  0.0000E+00  0.5333E-01  0.5333E-01
     28.947  0.0000E+00  0.0000E+00  0.5333E-01  0.5333E-01
     29.164  0.0000E+00  0.0000E+00  0.5333E-01  0.5333E-01
     29.381  0.0000E+00  0.0000E+00  0.5333E-01  0.5333E-01
     29.597  0.0000E+00  0.0000E+00  0.5333E-01  0.5333E-01
     29.814  0.0000E+00  0.0000E+00  0.5333E-01  0.5333E-01
     30.030  0.0000E+00  0.0000E+00  0.5333E-01  0.5333E-01
     30.247  0.0000E+00  0.0000E+00  0.5333E-01  0.5333E-01
     30.463  0.0000E+00  0.0000E+00  0.5333E-01  0.5333E-01
     30.680  0.0000E+00  0.0000E+00  0.5333E-01  0.5333E-01
     30.897  0.0000E+00  0.0000E+00  0.5333E-01  0.5333E-01
     31.113  0.0000E+00  0.0000E+00  0.5333E-01  0.5333E-01
     31.330  0.0000E+00  0.0000E+00  0.5333E-01  0.5333E-01
     31.546  0.0000E+00  0.0000E+00  0.5333E-01  0.5333E-01
     31.763  0.0000E+00  0.0000E+00  0.5333E-01  0.5333E-01
     31.979  0.0000E+00  0.0000E+00  0.5333E-01  0.5333E-01
     32.196  0.0000E+00  0.0000E+00  0.5333E-01  0.5333E-01
     32.413  0.0000E+00  0.0000E+00  0.5333E-01  0.5333E-01
     32.629  0.0000E+00  0.0000E+00  0.5333E-01  0.5333E-01
     32.846  0.0000E+00  0.0000E+00  0.5333E-01  0.5333E-01
     33.062  0.0000E+00  0.0000E+00  0.5333E-01  0.5333E-01
     33.279  0.0000E+00  0.0000E+00  0.5333E-01  0.5333E-01
     33.495  0.0000E+00  0.0000E+00  0.5333E-01  0.5333E-01
     33.712  0.0000E+00  0.0000E+00  0.5333E-01  0.5333E-01
     33.929  0.0000E+00  0.0000E+00  0.5333E-01  0.5333E-01
     34.145  0.0000E+00  0.0000E+00  0.5333E-01  0.5333E-01
     34.362  0.0000E+00  0.0000E+00  0.5333E-01  0.5333E-01
     34.578  0.0000E+00  0.0000E+00  0.5333E-01  0.5333E-01
     34.795  0.0000E+00  0.0000E+00  0.5333E-01  0.5333E-01
     35.011  0.0000E+00  0.0000E+00  0.5333E-01  0.5333E-01
     35.228  0.0000E+00  0.0000E+00  0.5333E-01  0.5333E-01
     35.445  0.0000E+00  0.0000E+00  0.5333E-01  0.5333E-01
     35.661  0.0000E+00  0.0000E+00  0.5333E-01  0.5333E-01
     35.878  0.0000E+00  0.0000E+00  0.5333E-01  0.5333E-01
     36.094  0.0000E+00  0.0000E+00  0.5333E-01  0.5333E-01
     36.311  0.0000E+00  0.0000E+00  0.5333E-01  0.5333E-01
     36.527  0.0000E+00  0.0000E+00  0.5333E-01  0.5333E-01
     36.744  0.0000E+00  0.0000E+00  0.5333E-01  0.5333E-01
     36.961  0.0000E+00  0.0000E+00  0.5333E-01  0.5333E-01
     37.177  0.0000E+00  0.0000E+00  0.5333E-01  0.5333E-01
     37.394  0.0000E+00  0.0000E+00  0.5333E-01  0.5333E-01
     37.610  0.0000E+00  0.0000E+00  0.5333E-01  0.5333E-01
     37.827  0.0000E+00  0.0000E+00  0.5333E-01  0.5333E-01
     38.044  0.0000E+00  0.0000E+00  0.5333E-01  0.5333E-01
     38.260  0.0000E+00  0.0000E+00  0.5333E-01  0.5333E-01
     38.477  0.0000E+00  0.0000E+00  0.5333E-01  0.5333E-01
     38.693  0.0000E+00  0.0000E+00  0.5333E-01  0.5333E-01
     38.910  0.0000E+00  0.0000E+00  0.5333E-01  0.5333E-01
     39.126  0.0000E+00  0.0000E+00  0.5333E-01  0.5333E-01
     39.343  0.0000E+00  0.0000E+00  0.5333E-01  0.5333E-01
