    2    2  300    2
  0.1830578E+02  0.3320520E-09  0.3320520E-09  0.3320520E-09  0.5000000E-15
  1.000000000000000E-004
  CAR 
 Crystal                                 
   22   20   16
 
  0.0000000E+00  0.0000000E+00  0.0000000E+00  0.2915452E-02
   1      -25.857201    -25.857200
   2      -25.857201    -25.857200
   3      -25.857201    -25.857200
   4      -24.991336    -24.991335
   5      -24.991336    -24.991335
   6      -24.991336    -24.991335
   7       -1.088428     -1.088428
   8        1.189356      1.189353
   9        1.189356      1.189353
  10        5.148714      5.148714
  11        5.148714      5.148714
  12        5.148714      5.148714
  13        7.980230      7.980225
  14        7.980230      7.980225
  15       10.223728     10.223727
  16       10.223728     10.223727
 
  0.1428571E+00 -0.3081488E-32  0.0000000E+00  0.1749271E-01
   1      -25.860182    -25.860181
   2      -25.813013    -25.813011
   3      -25.813013    -25.813011
   4      -25.084331    -25.084329
   5      -25.032517    -25.032516
   6      -25.032517    -25.032516
   7       -0.681256     -0.681256
   8        1.415402      1.415399
   9        1.524743      1.524740
  10        5.117107      5.117107
  11        5.117107      5.117107
  12        5.339115      5.339114
  13        7.416509      7.416505
  14        8.183084      8.183080
  15        9.079963      9.079962
  16        9.079963      9.079962
 
  0.2857143E+00  0.0000000E+00  0.0000000E+00  0.1749271E-01
   1      -25.843694    -25.843693
   2      -25.689723    -25.689722
   3      -25.689723    -25.689722
   4      -25.313160    -25.313158
   5      -25.149043    -25.149042
   6      -25.149043    -25.149042
   7        0.406941      0.406942
   8        2.082185      2.082182
   9        2.268679      2.268677
  10        5.142084      5.142083
  11        5.142084      5.142083
  12        5.894747      5.894747
  13        6.081580      6.081576
  14        7.447155      7.447155
  15        7.447155      7.447155
  16        8.689183      8.689176
 
  0.4285714E+00 -0.1232595E-31  0.0000000E+00  0.1749271E-01
   1      -25.755814    -25.755813
   2      -25.568215    -25.568214
   3      -25.513247    -25.513245
   4      -25.513247    -25.513245
   5      -25.320109    -25.320107
   6      -25.320109    -25.320107
   7        1.756900      1.756900
   8        2.577758      2.577758
   9        3.152383      3.152380
  10        4.543230      4.543227
  11        5.448542      5.448542
  12        5.448542      5.448542
  13        6.199880      6.199880
  14        6.199880      6.199880
  15        6.766591      6.766591
  16        7.853454      7.853454
 
  0.1428571E+00  0.1428571E+00  0.0000000E+00  0.3498542E-01
   1      -25.933756    -25.933754
   2      -25.772437    -25.772436
   3      -25.704455    -25.704453
   4      -25.245547    -25.245545
   5      -25.068829    -25.068827
   6      -24.993310    -24.993308
   7       -0.312023     -0.312023
   8        1.652896      1.652893
   9        1.824779      1.824777
  10        4.701904      4.701904
  11        4.990125      4.990124
  12        5.933499      5.933499
  13        7.497883      7.497879
  14        7.846456      7.846455
  15        8.011619      8.011614
  16        8.130855      8.130855
 
  0.2857143E+00  0.1428571E+00  0.0000000E+00  0.6997085E-01
   1      -25.973414    -25.973413
   2      -25.659632    -25.659630
   3      -25.543488    -25.543486
   4      -25.505801    -25.505800
   5      -25.172094    -25.172092
   6      -25.047043    -25.047041
   7        0.642527      0.642527
   8        2.165490      2.165488
   9        2.606833      2.606831
  10        4.457788      4.457787
  11        4.778872      4.778871
  12        6.351418      6.351418
  13        6.791568      6.791568
  14        6.796083      6.796079
  15        6.890005      6.890004
  16        8.495394      8.495389
 
  0.4285714E+00  0.1428571E+00  0.0000000E+00  0.6997085E-01
   1      -25.922213    -25.922212
   2      -25.757271    -25.757270
   3      -25.499160    -25.499159
   4      -25.360048    -25.360047
   5      -25.324983    -25.324981
   6      -25.182098    -25.182097
   7        1.755140      1.755140
   8        2.437036      2.437034
   9        3.407970      3.407968
  10        4.301922      4.301920
  11        4.603845      4.603845
  12        5.231981      5.231980
  13        6.330882      6.330880
  14        6.411226      6.411225
  15        7.820673      7.820672
  16        8.951452      8.948948
 
  0.2857143E+00  0.2857143E+00  0.0000000E+00  0.3498542E-01
   1      -26.101879    -26.101877
   2      -25.786493    -25.786491
   3      -25.576999    -25.576997
   4      -25.347991    -25.347990
   5      -25.238999    -25.238998
   6      -24.997880    -24.997878
   7        1.104219      1.104219
   8        2.105845      2.105843
   9        3.600353      3.600351
  10        3.846701      3.846701
  11        4.802772      4.802772
  12        5.009749      5.009748
  13        6.442423      6.442422
  14        7.607417      7.607414
  15        8.055155      8.055155
  16        8.227562      8.227557
 
  0.4285714E+00  0.2857143E+00  0.0000000E+00  0.6997085E-01
   1      -26.126988    -26.126987
   2      -26.016122    -26.016120
   3      -25.462084    -25.462082
   4      -25.341275    -25.341273
   5      -25.173561    -25.173560
   6      -25.047337    -25.047335
   7        1.473575      1.473574
   8        1.820028      1.820026
   9        3.697024      3.697024
  10        4.086779      4.086779
  11        4.609620      4.609619
  12        5.089916      5.089915
  13        6.936840      6.936838
  14        7.495284      7.495282
  15        8.843235      8.843231
  16        9.301679      9.301679
 
  0.4285714E+00  0.4285714E+00  0.0000000E+00  0.3498542E-01
   1      -26.233077    -26.233076
   2      -26.194175    -26.194173
   3      -25.414935    -25.414934
   4      -25.371746    -25.371745
   5      -25.047386    -25.047385
   6      -25.001728    -25.001727
   7        1.215043      1.215042
   8        1.325962      1.325960
   9        3.263858      3.263858
  10        3.395005      3.395004
  11        6.115572      6.115572
  12        6.465802      6.465804
  13        7.621576      7.621573
  14        8.025869      8.025866
  15        8.584390      8.584385
  16        9.573684      9.573681
 
  0.1428571E+00  0.1428571E+00  0.1428571E+00  0.2332362E-01
   1      -25.886130    -25.886128
   2      -25.886130    -25.886128
   3      -25.572505    -25.572503
   4      -25.375274    -25.375273
   5      -25.038433    -25.038431
   6      -25.038433    -25.038431
   7        0.043286      0.043287
   8        2.001866      2.001863
   9        2.001866      2.001863
  10        4.569241      4.569240
  11        4.569241      4.569240
  12        6.355177      6.355177
  13        6.562754      6.562754
  14        7.760851      7.760847
  15        7.760851      7.760847
  16        9.248792      9.248792
 
  0.2857143E+00  0.1428571E+00  0.1428571E+00  0.6997085E-01
   1      -25.975311    -25.975310
   2      -25.753093    -25.753091
   3      -25.614818    -25.614817
   4      -25.410305    -25.410303
   5      -25.165835    -25.165833
   6      -25.051332    -25.051330
   7        0.933495      0.933495
   8        2.501237      2.501234
   9        2.705205      2.705203
  10        4.267800      4.267799
  11        4.289734      4.289733
  12        5.125159      5.125159
  13        7.139775      7.139772
  14        7.595976      7.595976
  15        7.763982      7.763981
  16        8.382406      8.382401
 
  0.4285714E+00  0.1428571E+00  0.1428571E+00  0.6997085E-01
   1      -25.967437    -25.967435
   2      -25.838292    -25.838291
   3      -25.562122    -25.562120
   4      -25.352362    -25.352361
   5      -25.257025    -25.257023
   6      -25.130384    -25.130382
   7        1.907695      1.907695
   8        2.652443      2.652442
   9        3.199611      3.199609
  10        3.844550      3.844548
  11        4.555375      4.555374
  12        4.846676      4.846675
  13        6.629008      6.629006
  14        6.808047      6.808046
  15        8.510696      8.510735
  16        8.829670      8.829668
 
  0.2857143E+00  0.2857143E+00  0.1428571E+00  0.6997085E-01
   1      -26.046941    -26.046940
   2      -25.827049    -25.827048
   3      -25.708312    -25.708310
   4      -25.258020    -25.258019
   5      -25.231764    -25.231763
   6      -25.051866    -25.051864
   7        1.501429      1.501429
   8        2.507424      2.507422
   9        3.617411      3.617409
  10        3.728715      3.728714
  11        4.135721      4.135720
  12        4.241421      4.241420
  13        7.404407      7.404405
  14        7.724745      7.724742
  15        8.242176      8.242171
  16        8.931899      8.931899
 
  0.4285714E+00  0.2857143E+00  0.1428571E+00  0.1399417E+00
   1      -26.086906    -26.086905
   2      -26.009591    -26.009590
   3      -25.551425    -25.551424
   4      -25.375005    -25.375003
   5      -25.144833    -25.144832
   6      -25.076863    -25.076861
   7        1.842933      1.842932
   8        2.158042      2.158041
   9        3.548780      3.548779
  10        3.654366      3.654365
  11        4.639462      4.639462
  12        4.702164      4.702164
  13        7.320121      7.320119
  14        7.560242      7.560239
  15        8.694326      8.694307
  16        9.163996      9.163991
 
  0.4285714E+00  0.4285714E+00  0.1428571E+00  0.6997085E-01
   1      -26.172611    -26.172610
   2      -26.146044    -26.146043
   3      -25.478204    -25.478203
   4      -25.410058    -25.410056
   5      -25.082812    -25.082810
   6      -25.062836    -25.062834
   7        1.620967      1.620966
   8        1.700217      1.700216
   9        3.222299      3.222299
  10        3.322017      3.322016
  11        5.728972      5.728973
  12        5.814960      5.814962
  13        7.847894      7.847891
  14        8.094043      8.094040
  15        8.615591      8.615586
  16        9.041423      9.041421
 
  0.2857143E+00  0.2857143E+00  0.2857143E+00  0.2332362E-01
   1      -25.925000    -25.924999
   2      -25.892970    -25.892969
   3      -25.892970    -25.892969
   4      -25.203726    -25.203724
   5      -25.203726    -25.203724
   6      -25.168849    -25.168848
   7        2.419791      2.419791
   8        3.052632      3.052631
   9        3.522271      3.522271
  10        3.522271      3.522271
  11        3.613558      3.613557
  12        3.613558      3.613557
  13        8.190556      8.190552
  14        8.190556      8.190552
  15        8.426840      8.426838
  16        8.426840      8.426838
 
  0.4285714E+00  0.2857143E+00  0.2857143E+00  0.6997085E-01
   1      -26.009118    -26.009117
   2      -26.006161    -26.006160
   3      -25.670636    -25.670635
   4      -25.424463    -25.424462
   5      -25.163718    -25.163717
   6      -25.141974    -25.141972
   7        2.544605      2.544605
   8        2.568462      2.568461
   9        3.443028      3.443027
  10        3.522596      3.522595
  11        4.081759      4.081760
  12        4.416748      4.416748
  13        7.988141      7.988139
  14        8.030969      8.030966
  15        8.646479      8.646475
  16        8.726809      8.726805
 
  0.4285714E+00  0.4285714E+00  0.2857143E+00  0.6997085E-01
   1      -26.020487    -26.020485
   2      -26.002751    -26.002749
   3      -25.618766    -25.618765
   4      -25.481628    -25.481627
   5      -25.234235    -25.234234
   6      -25.193517    -25.193515
   7        2.513907      2.513907
   8        2.645138      2.645138
   9        3.209107      3.209107
  10        3.396946      3.396946
  11        4.682534      4.682535
  12        4.844788      4.844789
  13        8.330920      8.330916
  14        8.398821      8.398817
  15        8.674660      8.674655
  16        8.738222      8.738218
 
  0.4285714E+00  0.4285714E+00  0.4285714E+00  0.2332362E-01
   1      -25.876371    -25.876369
   2      -25.756366    -25.756365
   3      -25.756366    -25.756365
   4      -25.481904    -25.481902
   5      -25.481904    -25.481902
   6      -25.355411    -25.355409
   7        3.006996      3.006996
   8        3.425680      3.425680
   9        3.425680      3.425680
  10        3.985118      3.985118
  11        3.985118      3.985118
  12        4.013213      4.013213
  13        8.700161      8.700156
  14        8.700161      8.700156
  15        8.706197      8.706192
  16        8.706197      8.706192
