 running on    1 total cores
 distrk:  each k-point on    1 cores,    1 groups
 distr:  one band on    1 cores,    1 groups
 using from now: INCAR     
 vasp.5.3.3 18Dez12 (build Sep  7 2015 22:32:56) complex                        
  
 POSCAR found type information on POSCAR  Nb
 POSCAR found :  1 types and       2 ions
 LDA part: xc-table for Pade appr. of Perdew
 POSCAR, INCAR and KPOINTS ok, starting setup
 WARNING: small aliasing (wrap around) errors must be expected
 FFT: planning ...
 WAVECAR not read
 entering main loop
       N       E                     dE             d eps       ncg     rms          rms(c)
DAV:   1     0.153680125907E+03    0.15368E+03   -0.99049E+03  1464   0.113E+03
DAV:   2    -0.138878425963E+02   -0.16757E+03   -0.16527E+03  1472   0.461E+02
DAV:   3    -0.208949420894E+02   -0.70071E+01   -0.67053E+01  2072   0.797E+01
DAV:   4    -0.209941974931E+02   -0.99255E-01   -0.99086E-01  1616   0.898E+00
DAV:   5    -0.209958348442E+02   -0.16374E-02   -0.16372E-02  1944   0.103E+00
DAV:   6    -0.209958661100E+02   -0.31266E-04   -0.31266E-04  1752   0.117E-01
DAV:   7    -0.209958667612E+02   -0.65123E-06   -0.65037E-06  1528   0.138E-02
DAV:   8    -0.209958667913E+02   -0.30024E-07   -0.30043E-07   928   0.416E-03
DAV:   9    -0.209958668044E+02   -0.13154E-07   -0.12995E-07   880   0.264E-03
DAV:  10    -0.209958668117E+02   -0.73087E-08   -0.73373E-08   728   0.191E-03    0.244E+01
RMM:  11    -0.203094570019E+02    0.68641E+00   -0.10676E+00  1304   0.124E+01    0.104E+01
RMM:  12    -0.201458285897E+02    0.16363E+00   -0.18832E+00  1470   0.123E+01    0.298E+00
RMM:  13    -0.201580851195E+02   -0.12257E-01   -0.68615E-02  1435   0.271E+00    0.801E-01
RMM:  14    -0.201553079381E+02    0.27772E-02   -0.68084E-03  1409   0.857E-01    0.544E-01
RMM:  15    -0.201533144272E+02    0.19935E-02   -0.64117E-03  1296   0.979E-01    0.291E-01
RMM:  16    -0.201534901026E+02   -0.17568E-03   -0.95694E-04  1432   0.255E-01    0.484E-02
RMM:  17    -0.201534776638E+02    0.12439E-04   -0.68471E-05   964   0.953E-02    0.152E-02
RMM:  18    -0.201534681279E+02    0.95359E-05   -0.10380E-05   783   0.481E-02
   1 F= -.20153468E+02 E0= -.20154034E+02  d E =-.201535E+02  mag=     0.0000
 curvature:   0.00 expect dE= 0.000E+00 dE for cont linesearch  0.000E+00
 trial: gam= 0.00000 g(F)=  0.118E-61 g(S)=  0.365E-02 ort = 0.000E+00 (trialstep = 0.100E+01)
 search vector abs. value=  0.365E-02
 bond charge predicted
       N       E                     dE             d eps       ncg     rms          rms(c)
DAV:   1    -0.201889786838E+02   -0.35501E-01   -0.97970E-01  1536   0.114E+01    0.231E+00
RMM:   2    -0.201564353770E+02    0.32543E-01   -0.56883E-02  1321   0.293E+00    0.674E-01
RMM:   3    -0.201516972910E+02    0.47381E-02   -0.59998E-02  1439   0.235E+00    0.503E-01
RMM:   4    -0.201518953120E+02   -0.19802E-03   -0.30662E-03  1371   0.613E-01    0.124E-01
RMM:   5    -0.201518240114E+02    0.71301E-04   -0.56116E-04  1344   0.259E-01    0.520E-02
RMM:   6    -0.201518514112E+02   -0.27400E-04   -0.29823E-04  1389   0.172E-01    0.527E-02
RMM:   7    -0.201518430918E+02    0.83194E-05   -0.23875E-05   788   0.689E-02
   2 F= -.20151843E+02 E0= -.20152808E+02  d E =0.162504E-02  mag=    -0.0000
 trial-energy change:    0.001625  1 .order    0.001612   -0.003655    0.006878
 step:   0.3470(harm=  0.3470)  dis= 0.00000  next Energy=   -20.154102 (dE=-0.634E-03)
 bond charge predicted
       N       E                     dE             d eps       ncg     rms          rms(c)
DAV:   1    -0.201700188733E+02   -0.18167E-01   -0.41339E-01  1648   0.731E+00    0.155E+00
RMM:   2    -0.201560544802E+02    0.13964E-01   -0.24167E-02  1328   0.191E+00    0.426E-01
RMM:   3    -0.201540009629E+02    0.20535E-02   -0.24597E-02  1450   0.149E+00    0.311E-01
RMM:   4    -0.201540860821E+02   -0.85119E-04   -0.10038E-03  1366   0.360E-01    0.508E-02
RMM:   5    -0.201540799993E+02    0.60828E-05   -0.36559E-04  1318   0.238E-01    0.394E-02
RMM:   6    -0.201540844660E+02   -0.44666E-05   -0.57640E-05   967   0.608E-02
   3 F= -.20154084E+02 E0= -.20154801E+02  d E =-.616338E-03  mag=    -0.0000
 curvature:  -0.17 expect dE=-0.184E-07 dE for cont linesearch -0.184E-07
 trial: gam= 0.00000 g(F)=  0.135E-61 g(S)=  0.106E-06 ort =-0.197E-04 (trialstep = 0.869E+00)
 search vector abs. value=  0.106E-06
 reached required accuracy - stopping structural energy minimisation
