 vasp.5.3.3 18Dez12 (build Sep  7 2015 22:32:56) complex                        
  
 executed on             LinuxIFC date 2022.12.22  18:29:16
 running on    1 total cores
 distrk:  each k-point on    1 cores,    1 groups
 distr:  one band on NCORES_PER_BAND=   1 cores,    1 groups


--------------------------------------------------------------------------------------------------------


 INCAR:
 POTCAR:    PAW_PBE Nb_pv 08Apr2002               
 POTCAR:    PAW_PBE Nb_pv 08Apr2002               
   VRHFIN =Nb: 4p5s4d                                                           
   LEXCH  = PE                                                                  
   EATOM  =  1043.3917 eV,   76.6871 Ry                                         
                                                                                
   TITEL  = PAW_PBE Nb_pv 08Apr2002                                             
   LULTRA =        F    use ultrasoft PP ?                                      
   IUNSCR =        1    unscreen: 0-lin 1-nonlin 2-no                           
   RPACOR =    2.200    partial core radius                                     
   POMASS =   92.000; ZVAL   =   11.000    mass and valenz                      
   RCORE  =    2.750    outmost cutoff radius                                   
   RWIGS  =    2.840; RWIGS  =    1.503    wigner-seitz radius (au A)           
   ENMAX  =  208.608; ENMIN  =  156.456 eV                                      
   RCLOC  =    2.201    cutoff for local pot                                    
   LCOR   =        T    correct aug charges                                     
   LPAW   =        T    paw PP                                                  
   EAUG   =  355.067                                                            
   DEXC   =    0.000                                                            
   RMAX   =    2.804    core radius for proj-oper                               
   RAUG   =    1.300    factor for augmentation sphere                          
   RDEP   =    2.776    radius for radial grids                                 
   RDEPT  =    2.198    core radius for aug-charge                              
                                                                                
   Atomic configuration                                                         
   11 entries                                                                   
     n  l   j            E        occ.                                          
     1  0  0.50    -18805.2456   2.0000                                         
     2  0  0.50     -2630.2869   2.0000                                         
     2  1  1.50     -2348.4045   6.0000                                         
     3  0  0.50      -438.8756   2.0000                                         
     3  1  1.50      -346.7587   6.0000                                         
     3  2  2.50      -196.2559  10.0000                                         
     4  0  0.50       -58.3859   2.0000                                         
     4  1  1.50       -34.5141   6.0000                                         
     4  2  2.50        -3.0408   4.0000                                         
     5  0  0.50        -3.9816   1.0000                                         
     4  3  2.50        -1.3606   0.0000                                         
   Description                                                                  
     l       E           TYP  RCUT    TYP  RCUT                                 
     1    -34.5140617     23  2.600                                             
     1     -1.3605826     23  2.600                                             
     2     -3.0407924     23  2.600                                             
     2     -1.4463597     23  2.600                                             
     0     -3.9816219     23  2.750                                             
     0     20.4087390     23  2.750                                             
  local pseudopotential read in
  partial core-charges read in
  partial kinetic energy density read in
  atomic valenz-charges read in
  non local Contribution for L=           1  read in
    real space projection operators read in
  non local Contribution for L=           1  read in
    real space projection operators read in
  non local Contribution for L=           2  read in
    real space projection operators read in
  non local Contribution for L=           2  read in
    real space projection operators read in
  non local Contribution for L=           0  read in
    real space projection operators read in
  non local Contribution for L=           0  read in
    real space projection operators read in
    PAW grid and wavefunctions read in
 
   number of l-projection  operators is LMAX  =           6
   number of lm-projection operators is LMMAX =          18
 
  PAW_PBE Nb_pv 08Apr2002               :
 energy of atom  1       EATOM=-1043.3917
 kinetic energy error for atom=    0.0050 (will be added to EATOM!!)
 
 
 POSCAR: Nb2                                     
  positions in direct lattice
  No initial velocities read in
 exchange correlation table for  LEXCH =        8
   RHO(1)=    0.500       N(1)  =     2000
   RHO(2)=  100.500       N(2)  =     4000
 


--------------------------------------------------------------------------------------------------------


 ion  position               nearest neighbor table
   1  0.000  0.000  0.000-   2 2.88   2 2.88   2 2.88   2 2.88   2 2.88   2 2.88   2 2.88   2 2.88

   2  0.500  0.500  0.500-   1 2.88   1 2.88   1 2.88   1 2.88   1 2.88   1 2.88   1 2.88   1 2.88

 
  LATTYP: Found a simple cubic cell.
 ALAT       =     3.3205200000
  
  Lattice vectors:
  
 A1 = (   3.3205200000,   0.0000000000,   0.0000000000)
 A2 = (   0.0000000000,   3.3205200000,   0.0000000000)
 A3 = (   0.0000000000,   0.0000000000,   3.3205200000)


Analysis of symmetry for initial positions (statically):
=====================================================================
 Subroutine PRICEL returns following result:
 
  LATTYP: Found a body centered cubic cell.
 ALAT       =     3.3205200000
  
  Lattice vectors:
  
 A1 = (   1.6602600000,   1.6602600000,   1.6602600000)
 A2 = (   1.6602600000,  -1.6602600000,  -1.6602600000)
 A3 = (  -1.6602600000,   1.6602600000,  -1.6602600000)
 
   2 primitive cells build up your supercell.
 

 Routine SETGRP: Setting up the symmetry group for a 
 simple cubic supercell.


 Subroutine GETGRP returns: Found 48 space group operations
 (whereof 48 operations were pure point group operations)
 out of a pool of 48 trial point group operations.


The static configuration has the point symmetry O_h .


Analysis of symmetry for dynamics (positions and initial velocities):
=====================================================================
 Subroutine PRICEL returns following result:
 
  LATTYP: Found a body centered cubic cell.
 ALAT       =     3.3205200000
  
  Lattice vectors:
  
 A1 = (   1.6602600000,   1.6602600000,   1.6602600000)
 A2 = (   1.6602600000,  -1.6602600000,  -1.6602600000)
 A3 = (  -1.6602600000,   1.6602600000,  -1.6602600000)
 
   2 primitive cells build up your supercell.
 

 Routine SETGRP: Setting up the symmetry group for a 
 simple cubic supercell.


 Subroutine GETGRP returns: Found 48 space group operations
 (whereof 48 operations were pure point group operations)
 out of a pool of 48 trial point group operations.


The dynamic configuration has the point symmetry O_h .


Analysis of constrained symmetry for selective dynamics:
=====================================================================
 Subroutine PRICEL returns following result:
 
  LATTYP: Found a body centered cubic cell.
 ALAT       =     3.3205200000
  
  Lattice vectors:
  
 A1 = (   1.6602600000,   1.6602600000,   1.6602600000)
 A2 = (   1.6602600000,  -1.6602600000,  -1.6602600000)
 A3 = (  -1.6602600000,   1.6602600000,  -1.6602600000)
 
   2 primitive cells build up your supercell.
 

 Routine SETGRP: Setting up the symmetry group for a 
 simple cubic supercell.


 Subroutine GETGRP returns: Found 48 space group operations
 (whereof 48 operations were pure point group operations)
 out of a pool of 48 trial point group operations.


The constrained configuration has the point symmetry O_h .


Analysis of magnetic symmetry:
=====================================================================

 Subroutine MAGSYM returns: Found 48 space group operations
 (whereof 48 operations were pure point group operations)
 out of a pool of 48 trial space group operations
 (whereof 48 operations were pure point group operations)
 and found also     2 'primitive' translations


The magnetic configuration has the point symmetry O_h .


 irot  :   1
 --------------------------------------------------------------------
 isymop:   1   0   0
           0   1   0
           0   0   1

 gtrans:     0.0000000     0.0000000     0.0000000

 ptrans:     0.0000000     0.0000000     0.0000000
 rotmap:
 (   1->   1)  (   2->   2) 

 ptrans:     0.5000000     0.5000000     0.5000000
 rotmap:
 (   1->   2)  (   2->   1) 


 irot  :   2
 --------------------------------------------------------------------
 isymop:  -1   0   0
           0  -1   0
           0   0  -1

 gtrans:     0.0000000     0.0000000     0.0000000

 ptrans:     0.0000000     0.0000000     0.0000000
 rotmap:
 (   1->   1)  (   2->   2) 

 ptrans:     0.5000000     0.5000000     0.5000000
 rotmap:
 (   1->   2)  (   2->   1) 


 irot  :   3
 --------------------------------------------------------------------
 isymop:   0   0   1
           1   0   0
           0   1   0

 gtrans:     0.0000000     0.0000000     0.0000000

 ptrans:     0.0000000     0.0000000     0.0000000
 rotmap:
 (   1->   1)  (   2->   2) 

 ptrans:     0.5000000     0.5000000     0.5000000
 rotmap:
 (   1->   2)  (   2->   1) 


 irot  :   4
 --------------------------------------------------------------------
 isymop:   0   0  -1
          -1   0   0
           0  -1   0

 gtrans:     0.0000000     0.0000000     0.0000000

 ptrans:     0.0000000     0.0000000     0.0000000
 rotmap:
 (   1->   1)  (   2->   2) 

 ptrans:     0.5000000     0.5000000     0.5000000
 rotmap:
 (   1->   2)  (   2->   1) 


 irot  :   5
 --------------------------------------------------------------------
 isymop:   0   1   0
           0   0   1
           1   0   0

 gtrans:     0.0000000     0.0000000     0.0000000

 ptrans:     0.0000000     0.0000000     0.0000000
 rotmap:
 (   1->   1)  (   2->   2) 

 ptrans:     0.5000000     0.5000000     0.5000000
 rotmap:
 (   1->   2)  (   2->   1) 


 irot  :   6
 --------------------------------------------------------------------
 isymop:   0  -1   0
           0   0  -1
          -1   0   0

 gtrans:     0.0000000     0.0000000     0.0000000

 ptrans:     0.0000000     0.0000000     0.0000000
 rotmap:
 (   1->   1)  (   2->   2) 

 ptrans:     0.5000000     0.5000000     0.5000000
 rotmap:
 (   1->   2)  (   2->   1) 


 irot  :   7
 --------------------------------------------------------------------
 isymop:   0  -1   0
           1   0   0
           0   0   1

 gtrans:     0.0000000     0.0000000     0.0000000

 ptrans:     0.0000000     0.0000000     0.0000000
 rotmap:
 (   1->   1)  (   2->   2) 

 ptrans:     0.5000000     0.5000000     0.5000000
 rotmap:
 (   1->   2)  (   2->   1) 


 irot  :   8
 --------------------------------------------------------------------
 isymop:   0   1   0
          -1   0   0
           0   0  -1

 gtrans:     0.0000000     0.0000000     0.0000000

 ptrans:     0.0000000     0.0000000     0.0000000
 rotmap:
 (   1->   1)  (   2->   2) 

 ptrans:     0.5000000     0.5000000     0.5000000
 rotmap:
 (   1->   2)  (   2->   1) 


 irot  :   9
 --------------------------------------------------------------------
 isymop:  -1   0   0
           0   0   1
           0   1   0

 gtrans:     0.0000000     0.0000000     0.0000000

 ptrans:     0.0000000     0.0000000     0.0000000
 rotmap:
 (   1->   1)  (   2->   2) 

 ptrans:     0.5000000     0.5000000     0.5000000
 rotmap:
 (   1->   2)  (   2->   1) 


 irot  :  10
 --------------------------------------------------------------------
 isymop:   1   0   0
           0   0  -1
           0  -1   0

 gtrans:     0.0000000     0.0000000     0.0000000

 ptrans:     0.0000000     0.0000000     0.0000000
 rotmap:
 (   1->   1)  (   2->   2) 

 ptrans:     0.5000000     0.5000000     0.5000000
 rotmap:
 (   1->   2)  (   2->   1) 


 irot  :  11
 --------------------------------------------------------------------
 isymop:   0   0  -1
           0   1   0
           1   0   0

 gtrans:     0.0000000     0.0000000     0.0000000

 ptrans:     0.0000000     0.0000000     0.0000000
 rotmap:
 (   1->   1)  (   2->   2) 

 ptrans:     0.5000000     0.5000000     0.5000000
 rotmap:
 (   1->   2)  (   2->   1) 


 irot  :  12
 --------------------------------------------------------------------
 isymop:   0   0   1
           0  -1   0
          -1   0   0

 gtrans:     0.0000000     0.0000000     0.0000000

 ptrans:     0.0000000     0.0000000     0.0000000
 rotmap:
 (   1->   1)  (   2->   2) 

 ptrans:     0.5000000     0.5000000     0.5000000
 rotmap:
 (   1->   2)  (   2->   1) 


 irot  :  13
 --------------------------------------------------------------------
 isymop:  -1   0   0
           0  -1   0
           0   0   1

 gtrans:     0.0000000     0.0000000     0.0000000

 ptrans:     0.0000000     0.0000000     0.0000000
 rotmap:
 (   1->   1)  (   2->   2) 

 ptrans:     0.5000000     0.5000000     0.5000000
 rotmap:
 (   1->   2)  (   2->   1) 


 irot  :  14
 --------------------------------------------------------------------
 isymop:   1   0   0
           0   1   0
           0   0  -1

 gtrans:     0.0000000     0.0000000     0.0000000

 ptrans:     0.0000000     0.0000000     0.0000000
 rotmap:
 (   1->   1)  (   2->   2) 

 ptrans:     0.5000000     0.5000000     0.5000000
 rotmap:
 (   1->   2)  (   2->   1) 


 irot  :  15
 --------------------------------------------------------------------
 isymop:   0   0  -1
          -1   0   0
           0   1   0

 gtrans:     0.0000000     0.0000000     0.0000000

 ptrans:     0.0000000     0.0000000     0.0000000
 rotmap:
 (   1->   1)  (   2->   2) 

 ptrans:     0.5000000     0.5000000     0.5000000
 rotmap:
 (   1->   2)  (   2->   1) 


 irot  :  16
 --------------------------------------------------------------------
 isymop:   0   0   1
           1   0   0
           0  -1   0

 gtrans:     0.0000000     0.0000000     0.0000000

 ptrans:     0.0000000     0.0000000     0.0000000
 rotmap:
 (   1->   1)  (   2->   2) 

 ptrans:     0.5000000     0.5000000     0.5000000
 rotmap:
 (   1->   2)  (   2->   1) 


 irot  :  17
 --------------------------------------------------------------------
 isymop:   0  -1   0
           0   0  -1
           1   0   0

 gtrans:     0.0000000     0.0000000     0.0000000

 ptrans:     0.0000000     0.0000000     0.0000000
 rotmap:
 (   1->   1)  (   2->   2) 

 ptrans:     0.5000000     0.5000000     0.5000000
 rotmap:
 (   1->   2)  (   2->   1) 


 irot  :  18
 --------------------------------------------------------------------
 isymop:   0   1   0
           0   0   1
          -1   0   0

 gtrans:     0.0000000     0.0000000     0.0000000

 ptrans:     0.0000000     0.0000000     0.0000000
 rotmap:
 (   1->   1)  (   2->   2) 

 ptrans:     0.5000000     0.5000000     0.5000000
 rotmap:
 (   1->   2)  (   2->   1) 


 irot  :  19
 --------------------------------------------------------------------
 isymop:   0   1   0
          -1   0   0
           0   0   1

 gtrans:     0.0000000     0.0000000     0.0000000

 ptrans:     0.0000000     0.0000000     0.0000000
 rotmap:
 (   1->   1)  (   2->   2) 

 ptrans:     0.5000000     0.5000000     0.5000000
 rotmap:
 (   1->   2)  (   2->   1) 


 irot  :  20
 --------------------------------------------------------------------
 isymop:   0  -1   0
           1   0   0
           0   0  -1

 gtrans:     0.0000000     0.0000000     0.0000000

 ptrans:     0.0000000     0.0000000     0.0000000
 rotmap:
 (   1->   1)  (   2->   2) 

 ptrans:     0.5000000     0.5000000     0.5000000
 rotmap:
 (   1->   2)  (   2->   1) 


 irot  :  21
 --------------------------------------------------------------------
 isymop:   1   0   0
           0   0  -1
           0   1   0

 gtrans:     0.0000000     0.0000000     0.0000000

 ptrans:     0.0000000     0.0000000     0.0000000
 rotmap:
 (   1->   1)  (   2->   2) 

 ptrans:     0.5000000     0.5000000     0.5000000
 rotmap:
 (   1->   2)  (   2->   1) 


 irot  :  22
 --------------------------------------------------------------------
 isymop:  -1   0   0
           0   0   1
           0  -1   0

 gtrans:     0.0000000     0.0000000     0.0000000

 ptrans:     0.0000000     0.0000000     0.0000000
 rotmap:
 (   1->   1)  (   2->   2) 

 ptrans:     0.5000000     0.5000000     0.5000000
 rotmap:
 (   1->   2)  (   2->   1) 


 irot  :  23
 --------------------------------------------------------------------
 isymop:   0   0   1
           0  -1   0
           1   0   0

 gtrans:     0.0000000     0.0000000     0.0000000

 ptrans:     0.0000000     0.0000000     0.0000000
 rotmap:
 (   1->   1)  (   2->   2) 

 ptrans:     0.5000000     0.5000000     0.5000000
 rotmap:
 (   1->   2)  (   2->   1) 


 irot  :  24
 --------------------------------------------------------------------
 isymop:   0   0  -1
           0   1   0
          -1   0   0

 gtrans:     0.0000000     0.0000000     0.0000000

 ptrans:     0.0000000     0.0000000     0.0000000
 rotmap:
 (   1->   1)  (   2->   2) 

 ptrans:     0.5000000     0.5000000     0.5000000
 rotmap:
 (   1->   2)  (   2->   1) 


 irot  :  25
 --------------------------------------------------------------------
 isymop:   0   0   1
          -1   0   0
           0  -1   0

 gtrans:     0.0000000     0.0000000     0.0000000

 ptrans:     0.0000000     0.0000000     0.0000000
 rotmap:
 (   1->   1)  (   2->   2) 

 ptrans:     0.5000000     0.5000000     0.5000000
 rotmap:
 (   1->   2)  (   2->   1) 


 irot  :  26
 --------------------------------------------------------------------
 isymop:   0   0  -1
           1   0   0
           0   1   0

 gtrans:     0.0000000     0.0000000     0.0000000

 ptrans:     0.0000000     0.0000000     0.0000000
 rotmap:
 (   1->   1)  (   2->   2) 

 ptrans:     0.5000000     0.5000000     0.5000000
 rotmap:
 (   1->   2)  (   2->   1) 


 irot  :  27
 --------------------------------------------------------------------
 isymop:   0   1   0
           0   0  -1
          -1   0   0

 gtrans:     0.0000000     0.0000000     0.0000000

 ptrans:     0.0000000     0.0000000     0.0000000
 rotmap:
 (   1->   1)  (   2->   2) 

 ptrans:     0.5000000     0.5000000     0.5000000
 rotmap:
 (   1->   2)  (   2->   1) 


 irot  :  28
 --------------------------------------------------------------------
 isymop:   0  -1   0
           0   0   1
           1   0   0

 gtrans:     0.0000000     0.0000000     0.0000000

 ptrans:     0.0000000     0.0000000     0.0000000
 rotmap:
 (   1->   1)  (   2->   2) 

 ptrans:     0.5000000     0.5000000     0.5000000
 rotmap:
 (   1->   2)  (   2->   1) 


 irot  :  29
 --------------------------------------------------------------------
 isymop:   1   0   0
           0  -1   0
           0   0  -1

 gtrans:     0.0000000     0.0000000     0.0000000

 ptrans:     0.0000000     0.0000000     0.0000000
 rotmap:
 (   1->   1)  (   2->   2) 

 ptrans:     0.5000000     0.5000000     0.5000000
 rotmap:
 (   1->   2)  (   2->   1) 


 irot  :  30
 --------------------------------------------------------------------
 isymop:  -1   0   0
           0   1   0
           0   0   1

 gtrans:     0.0000000     0.0000000     0.0000000

 ptrans:     0.0000000     0.0000000     0.0000000
 rotmap:
 (   1->   1)  (   2->   2) 

 ptrans:     0.5000000     0.5000000     0.5000000
 rotmap:
 (   1->   2)  (   2->   1) 


 irot  :  31
 --------------------------------------------------------------------
 isymop:   0   0   1
           0   1   0
          -1   0   0

 gtrans:     0.0000000     0.0000000     0.0000000

 ptrans:     0.0000000     0.0000000     0.0000000
 rotmap:
 (   1->   1)  (   2->   2) 

 ptrans:     0.5000000     0.5000000     0.5000000
 rotmap:
 (   1->   2)  (   2->   1) 


 irot  :  32
 --------------------------------------------------------------------
 isymop:   0   0  -1
           0  -1   0
           1   0   0

 gtrans:     0.0000000     0.0000000     0.0000000

 ptrans:     0.0000000     0.0000000     0.0000000
 rotmap:
 (   1->   1)  (   2->   2) 

 ptrans:     0.5000000     0.5000000     0.5000000
 rotmap:
 (   1->   2)  (   2->   1) 


 irot  :  33
 --------------------------------------------------------------------
 isymop:   0   1   0
           1   0   0
           0   0  -1

 gtrans:     0.0000000     0.0000000     0.0000000

 ptrans:     0.0000000     0.0000000     0.0000000
 rotmap:
 (   1->   1)  (   2->   2) 

 ptrans:     0.5000000     0.5000000     0.5000000
 rotmap:
 (   1->   2)  (   2->   1) 


 irot  :  34
 --------------------------------------------------------------------
 isymop:   0  -1   0
          -1   0   0
           0   0   1

 gtrans:     0.0000000     0.0000000     0.0000000

 ptrans:     0.0000000     0.0000000     0.0000000
 rotmap:
 (   1->   1)  (   2->   2) 

 ptrans:     0.5000000     0.5000000     0.5000000
 rotmap:
 (   1->   2)  (   2->   1) 


 irot  :  35
 --------------------------------------------------------------------
 isymop:   1   0   0
           0   0   1
           0  -1   0

 gtrans:     0.0000000     0.0000000     0.0000000

 ptrans:     0.0000000     0.0000000     0.0000000
 rotmap:
 (   1->   1)  (   2->   2) 

 ptrans:     0.5000000     0.5000000     0.5000000
 rotmap:
 (   1->   2)  (   2->   1) 


 irot  :  36
 --------------------------------------------------------------------
 isymop:  -1   0   0
           0   0  -1
           0   1   0

 gtrans:     0.0000000     0.0000000     0.0000000

 ptrans:     0.0000000     0.0000000     0.0000000
 rotmap:
 (   1->   1)  (   2->   2) 

 ptrans:     0.5000000     0.5000000     0.5000000
 rotmap:
 (   1->   2)  (   2->   1) 


 irot  :  37
 --------------------------------------------------------------------
 isymop:   0  -1   0
           0   0   1
          -1   0   0

 gtrans:     0.0000000     0.0000000     0.0000000

 ptrans:     0.0000000     0.0000000     0.0000000
 rotmap:
 (   1->   1)  (   2->   2) 

 ptrans:     0.5000000     0.5000000     0.5000000
 rotmap:
 (   1->   2)  (   2->   1) 


 irot  :  38
 --------------------------------------------------------------------
 isymop:   0   1   0
           0   0  -1
           1   0   0

 gtrans:     0.0000000     0.0000000     0.0000000

 ptrans:     0.0000000     0.0000000     0.0000000
 rotmap:
 (   1->   1)  (   2->   2) 

 ptrans:     0.5000000     0.5000000     0.5000000
 rotmap:
 (   1->   2)  (   2->   1) 


 irot  :  39
 --------------------------------------------------------------------
 isymop:  -1   0   0
           0   1   0
           0   0  -1

 gtrans:     0.0000000     0.0000000     0.0000000

 ptrans:     0.0000000     0.0000000     0.0000000
 rotmap:
 (   1->   1)  (   2->   2) 

 ptrans:     0.5000000     0.5000000     0.5000000
 rotmap:
 (   1->   2)  (   2->   1) 


 irot  :  40
 --------------------------------------------------------------------
 isymop:   1   0   0
           0  -1   0
           0   0   1

 gtrans:     0.0000000     0.0000000     0.0000000

 ptrans:     0.0000000     0.0000000     0.0000000
 rotmap:
 (   1->   1)  (   2->   2) 

 ptrans:     0.5000000     0.5000000     0.5000000
 rotmap:
 (   1->   2)  (   2->   1) 


 irot  :  41
 --------------------------------------------------------------------
 isymop:   0   0  -1
           1   0   0
           0  -1   0

 gtrans:     0.0000000     0.0000000     0.0000000

 ptrans:     0.0000000     0.0000000     0.0000000
 rotmap:
 (   1->   1)  (   2->   2) 

 ptrans:     0.5000000     0.5000000     0.5000000
 rotmap:
 (   1->   2)  (   2->   1) 


 irot  :  42
 --------------------------------------------------------------------
 isymop:   0   0   1
          -1   0   0
           0   1   0

 gtrans:     0.0000000     0.0000000     0.0000000

 ptrans:     0.0000000     0.0000000     0.0000000
 rotmap:
 (   1->   1)  (   2->   2) 

 ptrans:     0.5000000     0.5000000     0.5000000
 rotmap:
 (   1->   2)  (   2->   1) 


 irot  :  43
 --------------------------------------------------------------------
 isymop:  -1   0   0
           0   0  -1
           0  -1   0

 gtrans:     0.0000000     0.0000000     0.0000000

 ptrans:     0.0000000     0.0000000     0.0000000
 rotmap:
 (   1->   1)  (   2->   2) 

 ptrans:     0.5000000     0.5000000     0.5000000
 rotmap:
 (   1->   2)  (   2->   1) 


 irot  :  44
 --------------------------------------------------------------------
 isymop:   1   0   0
           0   0   1
           0   1   0

 gtrans:     0.0000000     0.0000000     0.0000000

 ptrans:     0.0000000     0.0000000     0.0000000
 rotmap:
 (   1->   1)  (   2->   2) 

 ptrans:     0.5000000     0.5000000     0.5000000
 rotmap:
 (   1->   2)  (   2->   1) 


 irot  :  45
 --------------------------------------------------------------------
 isymop:   0  -1   0
          -1   0   0
           0   0  -1

 gtrans:     0.0000000     0.0000000     0.0000000

 ptrans:     0.0000000     0.0000000     0.0000000
 rotmap:
 (   1->   1)  (   2->   2) 

 ptrans:     0.5000000     0.5000000     0.5000000
 rotmap:
 (   1->   2)  (   2->   1) 


 irot  :  46
 --------------------------------------------------------------------
 isymop:   0   1   0
           1   0   0
           0   0   1

 gtrans:     0.0000000     0.0000000     0.0000000

 ptrans:     0.0000000     0.0000000     0.0000000
 rotmap:
 (   1->   1)  (   2->   2) 

 ptrans:     0.5000000     0.5000000     0.5000000
 rotmap:
 (   1->   2)  (   2->   1) 


 irot  :  47
 --------------------------------------------------------------------
 isymop:   0   0  -1
           0  -1   0
          -1   0   0

 gtrans:     0.0000000     0.0000000     0.0000000

 ptrans:     0.0000000     0.0000000     0.0000000
 rotmap:
 (   1->   1)  (   2->   2) 

 ptrans:     0.5000000     0.5000000     0.5000000
 rotmap:
 (   1->   2)  (   2->   1) 


 irot  :  48
 --------------------------------------------------------------------
 isymop:   0   0   1
           0   1   0
           1   0   0

 gtrans:     0.0000000     0.0000000     0.0000000

 ptrans:     0.0000000     0.0000000     0.0000000
 rotmap:
 (   1->   1)  (   2->   2) 

 ptrans:     0.5000000     0.5000000     0.5000000
 rotmap:
 (   1->   2)  (   2->   1) 
 
 
 KPOINTS: K-Points                                

Automatic generation of k-mesh.
Space group operators:
 irot       det(A)        alpha          n_x          n_y          n_z        tau_x        tau_y        tau_z
    1     1.000000     0.000000     1.000000     0.000000     0.000000     0.000000     0.000000     0.000000
    2    -1.000000     0.000000     1.000000     0.000000     0.000000     0.000000     0.000000     0.000000
    3     1.000000   120.000000    -0.577350    -0.577350    -0.577350     0.000000     0.000000     0.000000
    4    -1.000000   120.000000    -0.577350    -0.577350    -0.577350     0.000000     0.000000     0.000000
    5     1.000000   120.000000     0.577350     0.577350     0.577350     0.000000     0.000000     0.000000
    6    -1.000000   120.000000     0.577350     0.577350     0.577350     0.000000     0.000000     0.000000
    7     1.000000    90.000000     0.000000     0.000000    -1.000000     0.000000     0.000000     0.000000
    8    -1.000000    90.000000     0.000000     0.000000    -1.000000     0.000000     0.000000     0.000000
    9     1.000000   180.000000     0.000000    -0.707107    -0.707107     0.000000     0.000000     0.000000
   10    -1.000000   180.000000     0.000000    -0.707107    -0.707107     0.000000     0.000000     0.000000
   11     1.000000    90.000000     0.000000     1.000000     0.000000     0.000000     0.000000     0.000000
   12    -1.000000    90.000000     0.000000     1.000000     0.000000     0.000000     0.000000     0.000000
   13     1.000000   180.000000    -0.000000    -0.000000     1.000000     0.000000     0.000000     0.000000
   14    -1.000000   180.000000    -0.000000    -0.000000     1.000000     0.000000     0.000000     0.000000
   15     1.000000   120.000000    -0.577350     0.577350     0.577350     0.000000     0.000000     0.000000
   16    -1.000000   120.000000    -0.577350     0.577350     0.577350     0.000000     0.000000     0.000000
   17     1.000000   120.000000    -0.577350     0.577350    -0.577350     0.000000     0.000000     0.000000
   18    -1.000000   120.000000    -0.577350     0.577350    -0.577350     0.000000     0.000000     0.000000
   19     1.000000    90.000000    -0.000000    -0.000000     1.000000     0.000000     0.000000     0.000000
   20    -1.000000    90.000000    -0.000000    -0.000000     1.000000     0.000000     0.000000     0.000000
   21     1.000000    90.000000    -1.000000     0.000000    -0.000000     0.000000     0.000000     0.000000
   22    -1.000000    90.000000    -1.000000     0.000000    -0.000000     0.000000     0.000000     0.000000
   23     1.000000   180.000000    -0.707107     0.000000    -0.707107     0.000000     0.000000     0.000000
   24    -1.000000   180.000000    -0.707107     0.000000    -0.707107     0.000000     0.000000     0.000000
   25     1.000000   120.000000     0.577350    -0.577350     0.577350     0.000000     0.000000     0.000000
   26    -1.000000   120.000000     0.577350    -0.577350     0.577350     0.000000     0.000000     0.000000
   27     1.000000   120.000000    -0.577350    -0.577350     0.577350     0.000000     0.000000     0.000000
   28    -1.000000   120.000000    -0.577350    -0.577350     0.577350     0.000000     0.000000     0.000000
   29     1.000000   180.000000     1.000000    -0.000000     0.000000     0.000000     0.000000     0.000000
   30    -1.000000   180.000000     1.000000    -0.000000     0.000000     0.000000     0.000000     0.000000
   31     1.000000    90.000000    -0.000000    -1.000000     0.000000     0.000000     0.000000     0.000000
   32    -1.000000    90.000000    -0.000000    -1.000000     0.000000     0.000000     0.000000     0.000000
   33     1.000000   180.000000     0.707107     0.707107     0.000000     0.000000     0.000000     0.000000
   34    -1.000000   180.000000     0.707107     0.707107     0.000000     0.000000     0.000000     0.000000
   35     1.000000    90.000000     1.000000    -0.000000    -0.000000     0.000000     0.000000     0.000000
   36    -1.000000    90.000000     1.000000    -0.000000    -0.000000     0.000000     0.000000     0.000000
   37     1.000000   120.000000     0.577350    -0.577350    -0.577350     0.000000     0.000000     0.000000
   38    -1.000000   120.000000     0.577350    -0.577350    -0.577350     0.000000     0.000000     0.000000
   39     1.000000   180.000000     0.000000     1.000000     0.000000     0.000000     0.000000     0.000000
   40    -1.000000   180.000000     0.000000     1.000000     0.000000     0.000000     0.000000     0.000000
   41     1.000000   120.000000     0.577350     0.577350    -0.577350     0.000000     0.000000     0.000000
   42    -1.000000   120.000000     0.577350     0.577350    -0.577350     0.000000     0.000000     0.000000
   43     1.000000   180.000000    -0.000000    -0.707107     0.707107     0.000000     0.000000     0.000000
   44    -1.000000   180.000000    -0.000000    -0.707107     0.707107     0.000000     0.000000     0.000000
   45     1.000000   180.000000     0.707107    -0.707107     0.000000     0.000000     0.000000     0.000000
   46    -1.000000   180.000000     0.707107    -0.707107     0.000000     0.000000     0.000000     0.000000
   47     1.000000   180.000000     0.707107    -0.000000    -0.707107     0.000000     0.000000     0.000000
   48    -1.000000   180.000000     0.707107    -0.000000    -0.707107     0.000000     0.000000     0.000000
 
 Subroutine IBZKPT returns following result:
 ===========================================
 
 Found     20 irreducible k-points:
 
 Following reciprocal coordinates:
            Coordinates               Weight
  0.000000  0.000000  0.000000      1.000000
  0.142857 -0.000000  0.000000      6.000000
  0.285714  0.000000  0.000000      6.000000
  0.428571 -0.000000  0.000000      6.000000
  0.142857  0.142857  0.000000     12.000000
  0.285714  0.142857  0.000000     24.000000
  0.428571  0.142857  0.000000     24.000000
  0.285714  0.285714  0.000000     12.000000
  0.428571  0.285714  0.000000     24.000000
  0.428571  0.428571  0.000000     12.000000
  0.142857  0.142857  0.142857      8.000000
  0.285714  0.142857  0.142857     24.000000
  0.428571  0.142857  0.142857     24.000000
  0.285714  0.285714  0.142857     24.000000
  0.428571  0.285714  0.142857     48.000000
  0.428571  0.428571  0.142857     24.000000
  0.285714  0.285714  0.285714      8.000000
  0.428571  0.285714  0.285714     24.000000
  0.428571  0.428571  0.285714     24.000000
  0.428571  0.428571  0.428571      8.000000
 
 Following cartesian coordinates:
            Coordinates               Weight
  0.000000  0.000000  0.000000      1.000000
  0.043023 -0.000000  0.000000      6.000000
  0.086045 -0.000000  0.000000      6.000000
  0.129068 -0.000000  0.000000      6.000000
  0.043023  0.043023  0.000000     12.000000
  0.086045  0.043023  0.000000     24.000000
  0.129068  0.043023  0.000000     24.000000
  0.086045  0.086045  0.000000     12.000000
  0.129068  0.086045  0.000000     24.000000
  0.129068  0.129068  0.000000     12.000000
  0.043023  0.043023  0.043023      8.000000
  0.086045  0.043023  0.043023     24.000000
  0.129068  0.043023  0.043023     24.000000
  0.086045  0.086045  0.043023     24.000000
  0.129068  0.086045  0.043023     48.000000
  0.129068  0.129068  0.043023     24.000000
  0.086045  0.086045  0.086045      8.000000
  0.129068  0.086045  0.086045     24.000000
  0.129068  0.129068  0.086045     24.000000
  0.129068  0.129068  0.129068      8.000000
 


--------------------------------------------------------------------------------------------------------




 Dimension of arrays:
   k-points           NKPTS =     20   k-points in BZ     NKDIM =     20   number of bands    NBANDS=     16
   number of dos      NEDOS =    301   number of ions     NIONS =      2
   non local maximal  LDIM  =      6   non local SUM 2l+1 LMDIM =     18
   total plane-waves  NPLWV =   4096
   max r-space proj   IRMAX =      1   max aug-charges    IRDMAX=   7087
   dimension x,y,z NGX =    16 NGY =   16 NGZ =   16
   dimension x,y,z NGXF=    32 NGYF=   32 NGZF=   32
   support grid    NGXF=    32 NGYF=   32 NGZF=   32
   ions per type =               2
 NGX,Y,Z   is equivalent  to a cutoff of   8.01,  8.01,  8.01 a.u.
 NGXF,Y,Z  is equivalent  to a cutoff of  16.02, 16.02, 16.02 a.u.


 I would recommend the setting:
   dimension x,y,z NGX =    15 NGY =   15 NGZ =   15
 SYSTEM =  Crystal                                 
 POSCAR =  Nb2                                     

 Startparameter for this run:
   NWRITE =      2    write-flag & timer
   PREC   = normal    normal or accurate (medium, high low for compatibility)
   ISTART =      0    job   : 0-new  1-cont  2-samecut
   ICHARG =      2    charge: 1-file 2-atom 10-const
   ISPIN  =      2    spin polarized calculation?
   LNONCOLLINEAR =      F non collinear calculations
   LSORBIT =      F    spin-orbit coupling
   INIWAV =      1    electr: 0-lowe 1-rand  2-diag
   LASPH  =      F    aspherical Exc in radial PAW
   METAGGA=      F    non-selfconsistent MetaGGA calc.

 Electronic Relaxation 1
   ENCUT  =  350.0 eV  25.72 Ry    5.07 a.u.   5.07  5.07  5.07*2*pi/ulx,y,z
   ENINI  =  350.0     initial cutoff
   ENAUG  =  355.1 eV  augmentation charge cutoff
   NELM   =     60;   NELMIN=  4; NELMDL=-10     # of ELM steps 
   EDIFF  = 0.1E-04   stopping-criterion for ELM
   LREAL  =      F    real-space projection
   NLSPLINE    = F    spline interpolate recip. space projectors
   LCOMPAT=      F    compatible to vasp.4.4
   GGA_COMPAT  = T    GGA compatible to vasp.4.4-vasp.4.6
   LMAXPAW     = -100 max onsite density
   LMAXMIX     =    2 max onsite mixed and CHGCAR
   VOSKOWN=      0    Vosko Wilk Nusair interpolation
   ROPT   =    0.00000
 Ionic relaxation
   EDIFFG = -.1E-01   stopping-criterion for IOM
   NSW    =    300    number of steps for IOM
   NBLOCK =      1;   KBLOCK =    300    inner block; outer block 
   IBRION =      2    ionic relax: 0-MD 1-quasi-New 2-CG
   NFREE  =      1    steps in history (QN), initial steepest desc. (CG)
   ISIF   =      3    stress and relaxation
   IWAVPR =     11    prediction:  0-non 1-charg 2-wave 3-comb
   ISYM   =      2    0-nonsym 1-usesym 2-fastsym
   LCORR  =      T    Harris-Foulkes like correction to forces

   POTIM  = 0.5000    time-step for ionic-motion
   TEIN   =    0.0    initial temperature
   TEBEG  =    0.0;   TEEND  =   0.0 temperature during run
   SMASS  =  -3.00    Nose mass-parameter (am)
   estimated Nose-frequenzy (Omega)   =  0.10E-29 period in steps =****** mass=  -0.252E-27a.u.
   SCALEE = 1.0000    scale energy and forces
   NPACO  =    256;   APACO  = 16.0  distance and # of slots for P.C.
   PSTRESS=    0.0 pullay stress

  Mass of Ions in am
   POMASS =  92.00
  Ionic Valenz
   ZVAL   =  11.00
  Atomic Wigner-Seitz radii
   RWIGS  =  -1.00
  virtual crystal weights 
   VCA    =   1.00
   NELECT =      22.0000    total number of electrons
   NUPDOWN=      -1.0000    fix difference up-down

 DOS related values:
   EMIN   =  10.00;   EMAX   =-10.00  energy-range for DOS
   EFERMI =   0.00
   ISMEAR =     2;   SIGMA  =   0.10  broadening in eV -4-tet -1-fermi 0-gaus

 Electronic relaxation 2 (details)
   IALGO  =     68    algorithm
   LDIAG  =      T    sub-space diagonalisation (order eigenvalues)
   LSUBROT=      T    optimize rotation matrix (better conditioning)
   TURBO    =      0    0=normal 1=particle mesh
   IRESTART =      0    0=no restart 2=restart with 2 vectors
   NREBOOT  =      0    no. of reboots
   NMIN     =      0    reboot dimension
   EREF     =   0.00    reference energy to select bands
   IMIX   =      4    mixing-type and parameters
     AMIX     =   0.40;   BMIX     =  1.00
     AMIX_MAG =   1.60;   BMIX_MAG =  1.00
     AMIN     =   0.10
     WC   =   100.;   INIMIX=   1;  MIXPRE=   1;  MAXMIX= -45

 Intra band minimization:
   WEIMIN = 0.0010     energy-eigenvalue tresh-hold
   EBREAK =  0.16E-06  absolut break condition
   DEPER  =   0.30     relativ break condition  

   TIME   =   0.40     timestep for ELM

  volume/ion in A,a.u.               =      18.31       123.53
  Fermi-wavevector in a.u.,A,eV,Ry     =   1.381475  2.610609 25.966345  1.908473
  Thomas-Fermi vector in A             =   2.506256
 
 Write flags
   LWAVE  =      F    write WAVECAR
   LCHARG =      F    write CHGCAR
   LVTOT  =      F    write LOCPOT, total local potential
   LVHAR  =      F    write LOCPOT, Hartree potential only
   LELF   =      F    write electronic localiz. function (ELF)
   LORBIT =      0    0 simple, 1 ext, 2 COOP (PROOUT)


 Dipole corrections
   LMONO  =      F    monopole corrections only (constant potential shift)
   LDIPOL =      F    correct potential (dipole corrections)
   IDIPOL =      0    1-x, 2-y, 3-z, 4-all directions 
   EPSILON=  1.0000000 bulk dielectric constant

 Exchange correlation treatment:
   GGA     =    --    GGA type
   LEXCH   =     8    internal setting for exchange type
   VOSKOWN=      0    Vosko Wilk Nusair interpolation
   LHFCALC =     F    Hartree Fock is set to
   LHFONE  =     F    Hartree Fock one center treatment
   AEXX    =    0.0000 exact exchange contribution

 Linear response parameters
   LEPSILON=     F    determine dielectric tensor
   LRPA    =     F    only Hartree local field effects (RPA)
   LNABLA  =     F    use nabla operator in PAW spheres
   LVEL    =     F    velocity operator in full k-point grid
   LINTERFAST=   F  fast interpolation
   KINTER  =     0    interpolate to denser k-point grid
   CSHIFT  =0.1000    complex shift for real part using Kramers Kronig
   OMEGAMAX=  -1.0    maximum frequency
   DEG_THRESHOLD= 0.2000000E-02 threshold for treating states as degnerate
   RTIME   =    0.100 relaxation time in fs

 Orbital magnetization related:
   ORBITALMAG=     F  switch on orbital magnetization
   LCHIMAG   =     F  perturbation theory with respect to B field
   DQ        =  0.001000  dq finite difference perturbation B field



--------------------------------------------------------------------------------------------------------


 conjugate gradient relaxation of ions
   using selective dynamics as specified on POSCAR
 charge density and potential will be updated during run
 spin polarized calculation
 RMM-DIIS sequential band-by-band and
  variant of blocked Davidson during initial phase
 perform sub-space diagonalisation
    before iterative eigenvector-optimisation
 modified Broyden-mixing scheme, WC =      100.0
 initial mixing is a Kerker type mixing with AMIX =  0.4000 and BMIX =      1.0000
 Hartree-type preconditioning will be used
 using additional bands            5
 reciprocal scheme for non local part
 use partial core corrections
 calculate Harris-corrections to forces 
   (improved forces if not selfconsistent)
 use gradient corrections 
 use of overlap-Matrix (Vanderbilt PP)
 Methfessel and Paxton  Order N= 2 SIGMA  =   0.10


--------------------------------------------------------------------------------------------------------


  energy-cutoff  :      350.00
  volume of cell :       36.61
      direct lattice vectors                 reciprocal lattice vectors
     3.320520000  0.000000000  0.000000000     0.301157650 -0.000000000  0.000000000
     0.000000000  3.320520000  0.000000000     0.000000000  0.301157650  0.000000000
     0.000000000  0.000000000  3.320520000    -0.000000000 -0.000000000  0.301157650

  length of vectors
     3.320520000  3.320520000  3.320520000     0.301157650  0.301157650  0.301157650


 
 k-points in units of 2pi/SCALE and weight: K-Points                                
   0.00000000  0.00000000  0.00000000       0.003
   0.04302252 -0.00000000  0.00000000       0.017
   0.08604504 -0.00000000  0.00000000       0.017
   0.12906756 -0.00000000  0.00000000       0.017
   0.04302252  0.04302252  0.00000000       0.035
   0.08604504  0.04302252  0.00000000       0.070
   0.12906756  0.04302252  0.00000000       0.070
   0.08604504  0.08604504  0.00000000       0.035
   0.12906756  0.08604504  0.00000000       0.070
   0.12906756  0.12906756  0.00000000       0.035
   0.04302252  0.04302252  0.04302252       0.023
   0.08604504  0.04302252  0.04302252       0.070
   0.12906756  0.04302252  0.04302252       0.070
   0.08604504  0.08604504  0.04302252       0.070
   0.12906756  0.08604504  0.04302252       0.140
   0.12906756  0.12906756  0.04302252       0.070
   0.08604504  0.08604504  0.08604504       0.023
   0.12906756  0.08604504  0.08604504       0.070
   0.12906756  0.12906756  0.08604504       0.070
   0.12906756  0.12906756  0.12906756       0.023
 
 k-points in reciprocal lattice and weights: K-Points                                
   0.00000000  0.00000000  0.00000000       0.003
   0.14285714 -0.00000000  0.00000000       0.017
   0.28571429  0.00000000  0.00000000       0.017
   0.42857143 -0.00000000  0.00000000       0.017
   0.14285714  0.14285714  0.00000000       0.035
   0.28571429  0.14285714  0.00000000       0.070
   0.42857143  0.14285714  0.00000000       0.070
   0.28571429  0.28571429  0.00000000       0.035
   0.42857143  0.28571429  0.00000000       0.070
   0.42857143  0.42857143  0.00000000       0.035
   0.14285714  0.14285714  0.14285714       0.023
   0.28571429  0.14285714  0.14285714       0.070
   0.42857143  0.14285714  0.14285714       0.070
   0.28571429  0.28571429  0.14285714       0.070
   0.42857143  0.28571429  0.14285714       0.140
   0.42857143  0.42857143  0.14285714       0.070
   0.28571429  0.28571429  0.28571429       0.023
   0.42857143  0.28571429  0.28571429       0.070
   0.42857143  0.42857143  0.28571429       0.070
   0.42857143  0.42857143  0.42857143       0.023
 
 position of ions in fractional coordinates (direct lattice) 
   0.00000000  0.00000000  0.00000000
   0.50000000  0.50000000  0.50000000
 
 position of ions in cartesian coordinates  (Angst):
   0.00000000  0.00000000  0.00000000
   1.66026000  1.66026000  1.66026000
 


--------------------------------------------------------------------------------------------------------


 k-point  1 :   0.0000 0.0000 0.0000  plane waves:     515
 k-point  2 :   0.1429-0.0000 0.0000  plane waves:     530
 k-point  3 :   0.2857 0.0000 0.0000  plane waves:     542
 k-point  4 :   0.4286-0.0000 0.0000  plane waves:     538
 k-point  5 :   0.1429 0.1429 0.0000  plane waves:     533
 k-point  6 :   0.2857 0.1429 0.0000  plane waves:     533
 k-point  7 :   0.4286 0.1429 0.0000  plane waves:     547
 k-point  8 :   0.2857 0.2857 0.0000  plane waves:     547
 k-point  9 :   0.4286 0.2857 0.0000  plane waves:     546
 k-point 10 :   0.4286 0.4286 0.0000  plane waves:     556
 k-point 11 :   0.1429 0.1429 0.1429  plane waves:     543
 k-point 12 :   0.2857 0.1429 0.1429  plane waves:     540
 k-point 13 :   0.4286 0.1429 0.1429  plane waves:     555
 k-point 14 :   0.2857 0.2857 0.1429  plane waves:     541
 k-point 15 :   0.4286 0.2857 0.1429  plane waves:     547
 k-point 16 :   0.4286 0.4286 0.1429  plane waves:     542
 k-point 17 :   0.2857 0.2857 0.2857  plane waves:     546
 k-point 18 :   0.4286 0.2857 0.2857  plane waves:     555
 k-point 19 :   0.4286 0.4286 0.2857  plane waves:     547
 k-point 20 :   0.4286 0.4286 0.4286  plane waves:     543

 maximum and minimum number of plane-waves per node :       556      515

 maximum number of plane-waves:       556
 maximum index in each direction: 
   IXMAX=    5   IYMAX=    5   IZMAX=    5
   IXMIN=   -5   IYMIN=   -5   IZMIN=   -5

 WARNING: aliasing errors must be expected set NGX to  22 to avoid them
 WARNING: aliasing errors must be expected set NGY to  22 to avoid them
 WARNING: aliasing errors must be expected set NGZ to  22 to avoid them
 aliasing errors are usually negligible using standard VASP settings
 and one can safely disregard these warnings

 serial   3D FFT for wavefunctions
 parallel 3D FFT for charge:
    minimum data exchange during FFTs selected (reduces bandwidth)


 total amount of memory used by VASP on root node    41736. kBytes
========================================================================

   base      :      30000. kBytes
   nonl-proj :       1619. kBytes
   fftplans  :       1184. kBytes
   grid      :       2809. kBytes
   one-center:         62. kBytes
   wavefun   :       6062. kBytes
 
 Broyden mixing: mesh for mixing (old mesh)
   NGX = 11   NGY = 11   NGZ = 11
  (NGX  = 32   NGY  = 32   NGZ  = 32)
  gives a total of   1331 points

 initial charge density was supplied:
 charge density of overlapping atoms calculated
 number of electron      22.0000000 magnetization       2.0000000
 keeping initial charge density in first step


--------------------------------------------------------------------------------------------------------


 Maximum index for augmentation-charges         6667 (set IRDMAX)


--------------------------------------------------------------------------------------------------------


 First call to EWALD:  gamma=   0.534
 Maximum number of real-space cells 3x 3x 3
 Maximum number of reciprocal cells 3x 3x 3

 FEWALD executed in parallel
    FEWALD:  cpu time    0.00: real time    0.00


----------------------------------------- Iteration    1(   1)  ---------------------------------------


    POTLOK:  cpu time    0.05: real time    0.05
    SETDIJ:  cpu time    0.02: real time    0.02
     EDDAV:  cpu time    0.70: real time    0.70
       DOS:  cpu time    0.00: real time    0.00
    --------------------------------------------
      LOOP:  cpu time    0.78: real time    0.78

 eigenvalue-minimisations  :  1464
 total energy-change (2. order) : 0.1536801E+03  (-0.9904895E+03)
 number of electron      22.0000000 magnetization       2.0000000
 augmentation part       22.0000000 magnetization       2.0000000

 Free energy of the ion-electron system (eV)
  ---------------------------------------------------
  alpha Z        PSCENC =       247.30360481
  Ewald energy   TEWEN  =     -1909.61255388
  -1/2 Hartree   DENC   =      -279.14467189
  -exchange  EXHF       =         0.00000000
  -V(xc)+E(xc)   XCENC  =        52.72693376
  PAW double counting   =      1671.23129109    -1639.32392863
  entropy T*S    EENTRO =        -0.00039678
  eigenvalues    EBANDS =       -76.27354675
  atomic energy  EATOM  =      2086.77339417
  ---------------------------------------------------
  free energy    TOTEN  =       153.68012591 eV

  energy without entropy =      153.68052269  energy(sigma->0) =      153.68022510


--------------------------------------------------------------------------------------------------------




----------------------------------------- Iteration    1(   2)  ---------------------------------------


     EDDAV:  cpu time    0.70: real time    0.71
       DOS:  cpu time    0.00: real time    0.00
    --------------------------------------------
      LOOP:  cpu time    0.71: real time    0.71

 eigenvalue-minimisations  :  1472
 total energy-change (2. order) :-0.1675680E+03  (-0.1652703E+03)
 number of electron      22.0000000 magnetization       2.0000000
 augmentation part       22.0000000 magnetization       2.0000000

 Free energy of the ion-electron system (eV)
  ---------------------------------------------------
  alpha Z        PSCENC =       247.30360481
  Ewald energy   TEWEN  =     -1909.61255388
  -1/2 Hartree   DENC   =      -279.14467189
  -exchange  EXHF       =         0.00000000
  -V(xc)+E(xc)   XCENC  =        52.72693376
  PAW double counting   =      1671.23129109    -1639.32392863
  entropy T*S    EENTRO =         0.00077863
  eigenvalues    EBANDS =      -243.84269067
  atomic energy  EATOM  =      2086.77339417
  ---------------------------------------------------
  free energy    TOTEN  =       -13.88784260 eV

  energy without entropy =      -13.88862123  energy(sigma->0) =      -13.88803725


--------------------------------------------------------------------------------------------------------




----------------------------------------- Iteration    1(   3)  ---------------------------------------


     EDDAV:  cpu time    0.96: real time    0.96
       DOS:  cpu time    0.00: real time    0.00
    --------------------------------------------
      LOOP:  cpu time    0.96: real time    0.96

 eigenvalue-minimisations  :  2072
 total energy-change (2. order) :-0.7007099E+01  (-0.6705335E+01)
 number of electron      22.0000000 magnetization       2.0000000
 augmentation part       22.0000000 magnetization       2.0000000

 Free energy of the ion-electron system (eV)
  ---------------------------------------------------
  alpha Z        PSCENC =       247.30360481
  Ewald energy   TEWEN  =     -1909.61255388
  -1/2 Hartree   DENC   =      -279.14467189
  -exchange  EXHF       =         0.00000000
  -V(xc)+E(xc)   XCENC  =        52.72693376
  PAW double counting   =      1671.23129109    -1639.32392863
  entropy T*S    EENTRO =         0.00061703
  eigenvalues    EBANDS =      -250.84962856
  atomic energy  EATOM  =      2086.77339417
  ---------------------------------------------------
  free energy    TOTEN  =       -20.89494209 eV

  energy without entropy =      -20.89555912  energy(sigma->0) =      -20.89509635


--------------------------------------------------------------------------------------------------------




----------------------------------------- Iteration    1(   4)  ---------------------------------------


     EDDAV:  cpu time    0.77: real time    0.77
       DOS:  cpu time    0.00: real time    0.00
    --------------------------------------------
      LOOP:  cpu time    0.77: real time    0.77

 eigenvalue-minimisations  :  1616
 total energy-change (2. order) :-0.9925540E-01  (-0.9908601E-01)
 number of electron      22.0000000 magnetization       2.0000000
 augmentation part       22.0000000 magnetization       2.0000000

 Free energy of the ion-electron system (eV)
  ---------------------------------------------------
  alpha Z        PSCENC =       247.30360481
  Ewald energy   TEWEN  =     -1909.61255388
  -1/2 Hartree   DENC   =      -279.14467189
  -exchange  EXHF       =         0.00000000
  -V(xc)+E(xc)   XCENC  =        52.72693376
  PAW double counting   =      1671.23129109    -1639.32392863
  entropy T*S    EENTRO =         0.00082413
  eigenvalues    EBANDS =      -250.94909106
  atomic energy  EATOM  =      2086.77339417
  ---------------------------------------------------
  free energy    TOTEN  =       -20.99419749 eV

  energy without entropy =      -20.99502162  energy(sigma->0) =      -20.99440353


--------------------------------------------------------------------------------------------------------




----------------------------------------- Iteration    1(   5)  ---------------------------------------


     EDDAV:  cpu time    0.91: real time    0.91
       DOS:  cpu time    0.00: real time    0.00
    --------------------------------------------
      LOOP:  cpu time    0.91: real time    0.91

 eigenvalue-minimisations  :  1944
 total energy-change (2. order) :-0.1637351E-02  (-0.1637159E-02)
 number of electron      22.0000000 magnetization       2.0000000
 augmentation part       22.0000000 magnetization       2.0000000

 Free energy of the ion-electron system (eV)
  ---------------------------------------------------
  alpha Z        PSCENC =       247.30360481
  Ewald energy   TEWEN  =     -1909.61255388
  -1/2 Hartree   DENC   =      -279.14467189
  -exchange  EXHF       =         0.00000000
  -V(xc)+E(xc)   XCENC  =        52.72693376
  PAW double counting   =      1671.23129109    -1639.32392863
  entropy T*S    EENTRO =         0.00084586
  eigenvalues    EBANDS =      -250.95075014
  atomic energy  EATOM  =      2086.77339417
  ---------------------------------------------------
  free energy    TOTEN  =       -20.99583484 eV

  energy without entropy =      -20.99668070  energy(sigma->0) =      -20.99604631


--------------------------------------------------------------------------------------------------------




----------------------------------------- Iteration    1(   6)  ---------------------------------------


     EDDAV:  cpu time    0.83: real time    0.83
       DOS:  cpu time    0.00: real time    0.00
    --------------------------------------------
      LOOP:  cpu time    0.83: real time    0.83

 eigenvalue-minimisations  :  1752
 total energy-change (2. order) :-0.3126585E-04  (-0.3126645E-04)
 number of electron      22.0000000 magnetization       2.0000000
 augmentation part       22.0000000 magnetization       2.0000000

 Free energy of the ion-electron system (eV)
  ---------------------------------------------------
  alpha Z        PSCENC =       247.30360481
  Ewald energy   TEWEN  =     -1909.61255388
  -1/2 Hartree   DENC   =      -279.14467189
  -exchange  EXHF       =         0.00000000
  -V(xc)+E(xc)   XCENC  =        52.72693376
  PAW double counting   =      1671.23129109    -1639.32392863
  entropy T*S    EENTRO =         0.00084585
  eigenvalues    EBANDS =      -250.95078140
  atomic energy  EATOM  =      2086.77339417
  ---------------------------------------------------
  free energy    TOTEN  =       -20.99586611 eV

  energy without entropy =      -20.99671196  energy(sigma->0) =      -20.99607757


--------------------------------------------------------------------------------------------------------




----------------------------------------- Iteration    1(   7)  ---------------------------------------


     EDDAV:  cpu time    0.76: real time    0.75
       DOS:  cpu time    0.00: real time    0.00
    --------------------------------------------
      LOOP:  cpu time    0.76: real time    0.76

 eigenvalue-minimisations  :  1528
 total energy-change (2. order) :-0.6512291E-06  (-0.6503686E-06)
 number of electron      22.0000000 magnetization       2.0000000
 augmentation part       22.0000000 magnetization       2.0000000

 Free energy of the ion-electron system (eV)
  ---------------------------------------------------
  alpha Z        PSCENC =       247.30360481
  Ewald energy   TEWEN  =     -1909.61255388
  -1/2 Hartree   DENC   =      -279.14467189
  -exchange  EXHF       =         0.00000000
  -V(xc)+E(xc)   XCENC  =        52.72693376
  PAW double counting   =      1671.23129109    -1639.32392863
  entropy T*S    EENTRO =         0.00084585
  eigenvalues    EBANDS =      -250.95078205
  atomic energy  EATOM  =      2086.77339417
  ---------------------------------------------------
  free energy    TOTEN  =       -20.99586676 eV

  energy without entropy =      -20.99671261  energy(sigma->0) =      -20.99607822


--------------------------------------------------------------------------------------------------------




----------------------------------------- Iteration    1(   8)  ---------------------------------------


     EDDAV:  cpu time    0.52: real time    0.52
       DOS:  cpu time    0.00: real time    0.00
    --------------------------------------------
      LOOP:  cpu time    0.52: real time    0.52

 eigenvalue-minimisations  :   928
 total energy-change (2. order) :-0.3002424E-07  (-0.3004263E-07)
 number of electron      22.0000000 magnetization       2.0000000
 augmentation part       22.0000000 magnetization       2.0000000

 Free energy of the ion-electron system (eV)
  ---------------------------------------------------
  alpha Z        PSCENC =       247.30360481
  Ewald energy   TEWEN  =     -1909.61255388
  -1/2 Hartree   DENC   =      -279.14467189
  -exchange  EXHF       =         0.00000000
  -V(xc)+E(xc)   XCENC  =        52.72693376
  PAW double counting   =      1671.23129109    -1639.32392863
  entropy T*S    EENTRO =         0.00084585
  eigenvalues    EBANDS =      -250.95078208
  atomic energy  EATOM  =      2086.77339417
  ---------------------------------------------------
  free energy    TOTEN  =       -20.99586679 eV

  energy without entropy =      -20.99671264  energy(sigma->0) =      -20.99607825


--------------------------------------------------------------------------------------------------------




----------------------------------------- Iteration    1(   9)  ---------------------------------------


     EDDAV:  cpu time    0.51: real time    0.50
       DOS:  cpu time    0.00: real time    0.00
    --------------------------------------------
      LOOP:  cpu time    0.51: real time    0.51

 eigenvalue-minimisations  :   880
 total energy-change (2. order) :-0.1315402E-07  (-0.1299542E-07)
 number of electron      22.0000000 magnetization       2.0000000
 augmentation part       22.0000000 magnetization       2.0000000

 Free energy of the ion-electron system (eV)
  ---------------------------------------------------
  alpha Z        PSCENC =       247.30360481
  Ewald energy   TEWEN  =     -1909.61255388
  -1/2 Hartree   DENC   =      -279.14467189
  -exchange  EXHF       =         0.00000000
  -V(xc)+E(xc)   XCENC  =        52.72693376
  PAW double counting   =      1671.23129109    -1639.32392863
  entropy T*S    EENTRO =         0.00084585
  eigenvalues    EBANDS =      -250.95078209
  atomic energy  EATOM  =      2086.77339417
  ---------------------------------------------------
  free energy    TOTEN  =       -20.99586680 eV

  energy without entropy =      -20.99671265  energy(sigma->0) =      -20.99607827


--------------------------------------------------------------------------------------------------------




----------------------------------------- Iteration    1(  10)  ---------------------------------------


     EDDAV:  cpu time    0.45: real time    0.44
       DOS:  cpu time    0.00: real time    0.00
    CHARGE:  cpu time    0.07: real time    0.07
    MIXING:  cpu time    0.00: real time    0.00
    --------------------------------------------
      LOOP:  cpu time    0.52: real time    0.52

 eigenvalue-minimisations  :   728
 total energy-change (2. order) :-0.7308699E-08  (-0.7337311E-08)
 number of electron      21.9999933 magnetization       0.2905156
 augmentation part        7.7529200 magnetization      -0.1953541

 Broyden mixing:
  rms(total) = 0.24429E+01    rms(broyden)= 0.24429E+01
  rms(prec ) = 0.28730E+01
  weight for this iteration     100.00

 Free energy of the ion-electron system (eV)
  ---------------------------------------------------
  alpha Z        PSCENC =       247.30360481
  Ewald energy   TEWEN  =     -1909.61255388
  -1/2 Hartree   DENC   =      -279.14467189
  -exchange  EXHF       =         0.00000000
  -V(xc)+E(xc)   XCENC  =        52.72693376
  PAW double counting   =      1671.23129109    -1639.32392863
  entropy T*S    EENTRO =         0.00084585
  eigenvalues    EBANDS =      -250.95078210
  atomic energy  EATOM  =      2086.77339417
  ---------------------------------------------------
  free energy    TOTEN  =       -20.99586681 eV

  energy without entropy =      -20.99671266  energy(sigma->0) =      -20.99607827


--------------------------------------------------------------------------------------------------------




----------------------------------------- Iteration    1(  11)  ---------------------------------------


    POTLOK:  cpu time    0.05: real time    0.05
    SETDIJ:  cpu time    0.02: real time    0.02
    EDDIAG:  cpu time    0.14: real time    0.14
  RMM-DIIS:  cpu time    0.49: real time    0.49
    ORTHCH:  cpu time    0.01: real time    0.01
       DOS:  cpu time    0.00: real time    0.00
    CHARGE:  cpu time    0.07: real time    0.07
    MIXING:  cpu time    0.00: real time    0.00
    --------------------------------------------
      LOOP:  cpu time    0.79: real time    0.79

 eigenvalue-minimisations  :  1304
 total energy-change (2. order) : 0.6864098E+00  (-0.1067573E+00)
 number of electron      21.9999933 magnetization       0.2757004
 augmentation part        7.8917568 magnetization       0.0361330

 Broyden mixing:
  rms(total) = 0.10420E+01    rms(broyden)= 0.10420E+01
  rms(prec ) = 0.12869E+01
  weight for this iteration     100.00

 eigenvalues of (default mixing * dielectric matrix)
  average eigenvalue GAMMA=   1.4104
  1.4104

 Free energy of the ion-electron system (eV)
  ---------------------------------------------------
  alpha Z        PSCENC =       247.30360481
  Ewald energy   TEWEN  =     -1909.61255388
  -1/2 Hartree   DENC   =      -259.54513130
  -exchange  EXHF       =         0.00000000
  -V(xc)+E(xc)   XCENC  =        51.60481974
  PAW double counting   =      2189.22714828    -2160.88088041
  entropy T*S    EENTRO =        -0.00105389
  eigenvalues    EBANDS =      -265.17880452
  atomic energy  EATOM  =      2086.77339417
  ---------------------------------------------------
  free energy    TOTEN  =       -20.30945700 eV

  energy without entropy =      -20.30840311  energy(sigma->0) =      -20.30919353


--------------------------------------------------------------------------------------------------------




----------------------------------------- Iteration    1(  12)  ---------------------------------------


    POTLOK:  cpu time    0.05: real time    0.05
    SETDIJ:  cpu time    0.02: real time    0.02
    EDDIAG:  cpu time    0.14: real time    0.14
  RMM-DIIS:  cpu time    0.55: real time    0.55
    ORTHCH:  cpu time    0.01: real time    0.01
       DOS:  cpu time    0.00: real time    0.00
    CHARGE:  cpu time    0.08: real time    0.08
    MIXING:  cpu time    0.00: real time    0.00
    --------------------------------------------
      LOOP:  cpu time    0.86: real time    0.86

 eigenvalue-minimisations  :  1470
 total energy-change (2. order) : 0.1636284E+00  (-0.1883181E+00)
 number of electron      21.9999932 magnetization       0.0699875
 augmentation part        8.0531015 magnetization       0.0601763

 Broyden mixing:
  rms(total) = 0.29839E+00    rms(broyden)= 0.29839E+00
  rms(prec ) = 0.31039E+00
  weight for this iteration     100.00

 eigenvalues of (default mixing * dielectric matrix)
  average eigenvalue GAMMA=   1.1457
  1.6525  0.6388

 Free energy of the ion-electron system (eV)
  ---------------------------------------------------
  alpha Z        PSCENC =       247.30360481
  Ewald energy   TEWEN  =     -1909.61255388
  -1/2 Hartree   DENC   =      -243.92477122
  -exchange  EXHF       =         0.00000000
  -V(xc)+E(xc)   XCENC  =        50.83414251
  PAW double counting   =      2684.50507702    -2659.30146823
  entropy T*S    EENTRO =         0.00172775
  eigenvalues    EBANDS =      -276.72498152
  atomic energy  EATOM  =      2086.77339417
  ---------------------------------------------------
  free energy    TOTEN  =       -20.14582859 eV

  energy without entropy =      -20.14755634  energy(sigma->0) =      -20.14626053


--------------------------------------------------------------------------------------------------------




----------------------------------------- Iteration    1(  13)  ---------------------------------------


    POTLOK:  cpu time    0.05: real time    0.05
    SETDIJ:  cpu time    0.02: real time    0.02
    EDDIAG:  cpu time    0.14: real time    0.14
  RMM-DIIS:  cpu time    0.53: real time    0.53
    ORTHCH:  cpu time    0.01: real time    0.01
       DOS:  cpu time    0.00: real time    0.00
    CHARGE:  cpu time    0.08: real time    0.08
    MIXING:  cpu time    0.00: real time    0.00
    --------------------------------------------
      LOOP:  cpu time    0.84: real time    0.85

 eigenvalue-minimisations  :  1435
 total energy-change (2. order) :-0.1225653E-01  (-0.6861450E-02)
 number of electron      21.9999932 magnetization       0.0364098
 augmentation part        8.0607048 magnetization       0.0159182

 Broyden mixing:
  rms(total) = 0.80059E-01    rms(broyden)= 0.80059E-01
  rms(prec ) = 0.11276E+00
  weight for this iteration     100.00

 eigenvalues of (default mixing * dielectric matrix)
  average eigenvalue GAMMA=   1.0599
  1.7817  0.7453  0.6526

 Free energy of the ion-electron system (eV)
  ---------------------------------------------------
  alpha Z        PSCENC =       247.30360481
  Ewald energy   TEWEN  =     -1909.61255388
  -1/2 Hartree   DENC   =      -244.18969876
  -exchange  EXHF       =         0.00000000
  -V(xc)+E(xc)   XCENC  =        50.82982647
  PAW double counting   =      2725.91845466    -2700.90037265
  entropy T*S    EENTRO =         0.00200819
  eigenvalues    EBANDS =      -276.28274813
  atomic energy  EATOM  =      2086.77339417
  ---------------------------------------------------
  free energy    TOTEN  =       -20.15808512 eV

  energy without entropy =      -20.16009331  energy(sigma->0) =      -20.15858717


--------------------------------------------------------------------------------------------------------




----------------------------------------- Iteration    1(  14)  ---------------------------------------


    POTLOK:  cpu time    0.05: real time    0.05
    SETDIJ:  cpu time    0.02: real time    0.02
    EDDIAG:  cpu time    0.14: real time    0.14
  RMM-DIIS:  cpu time    0.52: real time    0.53
    ORTHCH:  cpu time    0.01: real time    0.01
       DOS:  cpu time    0.00: real time    0.00
    CHARGE:  cpu time    0.08: real time    0.08
    MIXING:  cpu time    0.00: real time    0.00
    --------------------------------------------
      LOOP:  cpu time    0.83: real time    0.83

 eigenvalue-minimisations  :  1409
 total energy-change (2. order) : 0.2777181E-02  (-0.6808436E-03)
 number of electron      21.9999932 magnetization       0.0039359
 augmentation part        8.0556551 magnetization      -0.0114694

 Broyden mixing:
  rms(total) = 0.54366E-01    rms(broyden)= 0.54366E-01
  rms(prec ) = 0.75539E-01
  weight for this iteration     100.00

 eigenvalues of (default mixing * dielectric matrix)
  average eigenvalue GAMMA=   1.3424
  2.5044  1.4313  0.7812  0.6528

 Free energy of the ion-electron system (eV)
  ---------------------------------------------------
  alpha Z        PSCENC =       247.30360481
  Ewald energy   TEWEN  =     -1909.61255388
  -1/2 Hartree   DENC   =      -244.78004335
  -exchange  EXHF       =         0.00000000
  -V(xc)+E(xc)   XCENC  =        50.85748665
  PAW double counting   =      2756.50067555    -2731.54373164
  entropy T*S    EENTRO =         0.00215281
  eigenvalues    EBANDS =      -275.65629305
  atomic energy  EATOM  =      2086.77339417
  ---------------------------------------------------
  free energy    TOTEN  =       -20.15530794 eV

  energy without entropy =      -20.15746075  energy(sigma->0) =      -20.15584614


--------------------------------------------------------------------------------------------------------




----------------------------------------- Iteration    1(  15)  ---------------------------------------


    POTLOK:  cpu time    0.05: real time    0.05
    SETDIJ:  cpu time    0.02: real time    0.02
    EDDIAG:  cpu time    0.14: real time    0.14
  RMM-DIIS:  cpu time    0.48: real time    0.49
    ORTHCH:  cpu time    0.01: real time    0.01
       DOS:  cpu time    0.00: real time    0.00
    CHARGE:  cpu time    0.08: real time    0.08
    MIXING:  cpu time    0.00: real time    0.00
    --------------------------------------------
      LOOP:  cpu time    0.80: real time    0.80

 eigenvalue-minimisations  :  1296
 total energy-change (2. order) : 0.1993511E-02  (-0.6411745E-03)
 number of electron      21.9999932 magnetization      -0.0052023
 augmentation part        8.0462907 magnetization      -0.0031996

 Broyden mixing:
  rms(total) = 0.29078E-01    rms(broyden)= 0.29078E-01
  rms(prec ) = 0.29628E-01
  weight for this iteration     100.00

 eigenvalues of (default mixing * dielectric matrix)
  average eigenvalue GAMMA=   1.3424
  2.6898  1.2810  1.2810  0.6508  0.8096

 Free energy of the ion-electron system (eV)
  ---------------------------------------------------
  alpha Z        PSCENC =       247.30360481
  Ewald energy   TEWEN  =     -1909.61255388
  -1/2 Hartree   DENC   =      -245.61879801
  -exchange  EXHF       =         0.00000000
  -V(xc)+E(xc)   XCENC  =        50.89690509
  PAW double counting   =      2837.95680693    -2813.15693402
  entropy T*S    EENTRO =         0.00230542
  eigenvalues    EBANDS =      -274.69804493
  atomic energy  EATOM  =      2086.77339417
  ---------------------------------------------------
  free energy    TOTEN  =       -20.15331443 eV

  energy without entropy =      -20.15561984  energy(sigma->0) =      -20.15389078


--------------------------------------------------------------------------------------------------------




----------------------------------------- Iteration    1(  16)  ---------------------------------------


    POTLOK:  cpu time    0.05: real time    0.05
    SETDIJ:  cpu time    0.02: real time    0.02
    EDDIAG:  cpu time    0.14: real time    0.14
  RMM-DIIS:  cpu time    0.53: real time    0.53
    ORTHCH:  cpu time    0.01: real time    0.01
       DOS:  cpu time    0.00: real time    0.00
    CHARGE:  cpu time    0.08: real time    0.08
    MIXING:  cpu time    0.00: real time    0.00
    --------------------------------------------
      LOOP:  cpu time    0.84: real time    0.84

 eigenvalue-minimisations  :  1432
 total energy-change (2. order) :-0.1756754E-03  (-0.9569408E-04)
 number of electron      21.9999932 magnetization      -0.0048172
 augmentation part        8.0453852 magnetization      -0.0006083

 Broyden mixing:
  rms(total) = 0.48417E-02    rms(broyden)= 0.48417E-02
  rms(prec ) = 0.52688E-02
  weight for this iteration     100.00

 eigenvalues of (default mixing * dielectric matrix)
  average eigenvalue GAMMA=   1.2778
  2.6401  1.3881  1.3881  0.6613  0.7946  0.7946

 Free energy of the ion-electron system (eV)
  ---------------------------------------------------
  alpha Z        PSCENC =       247.30360481
  Ewald energy   TEWEN  =     -1909.61255388
  -1/2 Hartree   DENC   =      -245.53279027
  -exchange  EXHF       =         0.00000000
  -V(xc)+E(xc)   XCENC  =        50.89256387
  PAW double counting   =      2864.60183891    -2839.83932869
  entropy T*S    EENTRO =         0.00225115
  eigenvalues    EBANDS =      -274.74247017
  atomic energy  EATOM  =      2086.77339417
  ---------------------------------------------------
  free energy    TOTEN  =       -20.15349010 eV

  energy without entropy =      -20.15574125  energy(sigma->0) =      -20.15405289


--------------------------------------------------------------------------------------------------------




----------------------------------------- Iteration    1(  17)  ---------------------------------------


    POTLOK:  cpu time    0.05: real time    0.05
    SETDIJ:  cpu time    0.02: real time    0.02
    EDDIAG:  cpu time    0.14: real time    0.14
  RMM-DIIS:  cpu time    0.38: real time    0.38
    ORTHCH:  cpu time    0.01: real time    0.01
       DOS:  cpu time    0.00: real time    0.00
    CHARGE:  cpu time    0.08: real time    0.08
    MIXING:  cpu time    0.00: real time    0.00
    --------------------------------------------
      LOOP:  cpu time    0.69: real time    0.69

 eigenvalue-minimisations  :   964
 total energy-change (2. order) : 0.1243878E-04  (-0.6847061E-05)
 number of electron      21.9999932 magnetization      -0.0018103
 augmentation part        8.0455327 magnetization       0.0006616

 Broyden mixing:
  rms(total) = 0.15175E-02    rms(broyden)= 0.15175E-02
  rms(prec ) = 0.24592E-02
  weight for this iteration     100.00

 eigenvalues of (default mixing * dielectric matrix)
  average eigenvalue GAMMA=   1.2679
  2.5970  1.5316  1.5316  1.1211  0.7958  0.6699  0.6284

 Free energy of the ion-electron system (eV)
  ---------------------------------------------------
  alpha Z        PSCENC =       247.30360481
  Ewald energy   TEWEN  =     -1909.61255388
  -1/2 Hartree   DENC   =      -245.53831753
  -exchange  EXHF       =         0.00000000
  -V(xc)+E(xc)   XCENC  =        50.89282798
  PAW double counting   =      2866.05569404    -2841.27586109
  entropy T*S    EENTRO =         0.00225329
  eigenvalues    EBANDS =      -274.75451946
  atomic energy  EATOM  =      2086.77339417
  ---------------------------------------------------
  free energy    TOTEN  =       -20.15347766 eV

  energy without entropy =      -20.15573095  energy(sigma->0) =      -20.15404099


--------------------------------------------------------------------------------------------------------




----------------------------------------- Iteration    1(  18)  ---------------------------------------


    POTLOK:  cpu time    0.05: real time    0.05
    SETDIJ:  cpu time    0.02: real time    0.02
    EDDIAG:  cpu time    0.14: real time    0.14
  RMM-DIIS:  cpu time    0.32: real time    0.32
    ORTHCH:  cpu time    0.01: real time    0.01
       DOS:  cpu time    0.00: real time    0.00
    --------------------------------------------
      LOOP:  cpu time    0.55: real time    0.55

 eigenvalue-minimisations  :   783
 total energy-change (2. order) : 0.9535920E-05  (-0.1038022E-05)
 number of electron      21.9999932 magnetization      -0.0018103
 augmentation part        8.0455327 magnetization       0.0006616

 Free energy of the ion-electron system (eV)
  ---------------------------------------------------
  alpha Z        PSCENC =       247.30360481
  Ewald energy   TEWEN  =     -1909.61255388
  -1/2 Hartree   DENC   =      -245.56809628
  -exchange  EXHF       =         0.00000000
  -V(xc)+E(xc)   XCENC  =        50.89427047
  PAW double counting   =      2866.09335799    -2841.29396563
  entropy T*S    EENTRO =         0.00226208
  eigenvalues    EBANDS =      -274.74574186
  atomic energy  EATOM  =      2086.77339417
  ---------------------------------------------------
  free energy    TOTEN  =       -20.15346813 eV

  energy without entropy =      -20.15573021  energy(sigma->0) =      -20.15403365


--------------------------------------------------------------------------------------------------------




 average (electrostatic) potential at core
  the test charge radii are     1.2125
  (the norm of the test charge is              1.0000)
       1 -35.1965       2 -35.1965
 
 
 
 E-fermi :   4.7999     XC(G=0): -12.3570     alpha+bet :-12.7796


 spin component 1

 k-point   1 :       0.0000    0.0000    0.0000
  band No.  band energies     occupation 
      1     -25.8067      1.00000
      2     -25.8067      1.00000
      3     -25.8067      1.00000
      4     -24.9259      1.00000
      5     -24.9259      1.00000
      6     -24.9259      1.00000
      7      -1.0550      1.00000
      8       1.2020      1.00000
      9       1.2020      1.00000
     10       5.1924      0.00000
     11       5.1924      0.00000
     12       5.1924      0.00000
     13       8.0424      0.00000
     14       8.0424      0.00000
     15      10.3074      0.00000
     16      10.3074      0.00000

 k-point   2 :       0.1429   -0.0000    0.0000
  band No.  band energies     occupation 
      1     -25.8099      1.00000
      2     -25.7618      1.00000
      3     -25.7618      1.00000
      4     -25.0208      1.00000
      5     -24.9678      1.00000
      6     -24.9678      1.00000
      7      -0.6452      1.00000
      8       1.4293      1.00000
      9       1.5413      1.00000
     10       5.1606      0.00001
     11       5.1606      0.00001
     12       5.3840      0.00000
     13       7.4729      0.00000
     14       8.2474      0.00000
     15       9.1541      0.00000
     16       9.1541      0.00000

 k-point   3 :       0.2857    0.0000    0.0000
  band No.  band energies     occupation 
      1     -25.7936      1.00000
      2     -25.6364      1.00000
      3     -25.6364      1.00000
      4     -25.2541      1.00000
      5     -25.0864      1.00000
      6     -25.0864      1.00000
      7       0.4490      1.00000
      8       2.0999      1.00000
      9       2.2960      1.00000
     10       5.1859      0.00000
     11       5.1859      0.00000
     12       5.9435      0.00000
     13       6.1262      0.00000
     14       7.5092      0.00000
     15       7.5092      0.00000
     16       8.7593      0.00000

 k-point   4 :       0.4286   -0.0000    0.0000
  band No.  band energies     occupation 
      1     -25.7046      1.00000
      2     -25.5138      1.00000
      3     -25.4569      1.00000
      4     -25.4569      1.00000
      5     -25.2605      1.00000
      6     -25.2605      1.00000
      7       1.8029      1.00000
      8       2.6183      1.00000
      9       3.1765      1.00000
     10       4.5764      0.99602
     11       5.4951      0.00000
     12       5.4951      0.00000
     13       6.2525      0.00000
     14       6.2525      0.00000
     15       6.8215      0.00000
     16       7.9165      0.00000

[...]
      8       1.3260      1.00000
      9       3.2639      1.00000
     10       3.3950      1.00000
     11       6.1156      0.00000
     12       6.4658      0.00000
     13       7.6216      0.00000
     14       8.0259      0.00000
     15       8.5844      0.00000
     16       9.5737      0.00000

 k-point  11 :       0.1429    0.1429    0.1429
  band No.  band energies     occupation 
      1     -25.8861      1.00000
      2     -25.8861      1.00000
      3     -25.5725      1.00000
      4     -25.3753      1.00000
      5     -25.0384      1.00000
      6     -25.0384      1.00000
      7       0.0433      1.00000
      8       2.0019      1.00000
      9       2.0019      1.00000
     10       4.5692      0.99636
     11       4.5692      0.99636
     12       6.3552      0.00000
     13       6.5628      0.00000
     14       7.7608      0.00000
     15       7.7608      0.00000
     16       9.2488      0.00000

 k-point  12 :       0.2857    0.1429    0.1429
  band No.  band energies     occupation 
      1     -25.9753      1.00000
      2     -25.7531      1.00000
      3     -25.6148      1.00000
      4     -25.4103      1.00000
      5     -25.1658      1.00000
      6     -25.0513      1.00000
      7       0.9335      1.00000
      8       2.5012      1.00000
      9       2.7052      1.00000
     10       4.2678      1.00000
     11       4.2897      1.00000
     12       5.1252      0.00001
     13       7.1398      0.00000
     14       7.5960      0.00000
     15       7.7640      0.00000
     16       8.3824      0.00000

 k-point  13 :       0.4286    0.1429    0.1429
  band No.  band energies     occupation 
      1     -25.9674      1.00000
      2     -25.8383      1.00000
      3     -25.5621      1.00000
      4     -25.3524      1.00000
      5     -25.2570      1.00000
      6     -25.1304      1.00000
      7       1.9077      1.00000
      8       2.6524      1.00000
      9       3.1996      1.00000
     10       3.8445      1.00000
     11       4.5554      0.99512
     12       4.8467     -0.05140
     13       6.6290      0.00000
     14       6.8080      0.00000
     15       8.5107      0.00000
     16       8.8297      0.00000

 k-point  14 :       0.2857    0.2857    0.1429
  band No.  band energies     occupation 
      1     -26.0469      1.00000
      2     -25.8270      1.00000
      3     -25.7083      1.00000
      4     -25.2580      1.00000
      5     -25.2318      1.00000
      6     -25.0519      1.00000
      7       1.5014      1.00000
      8       2.5074      1.00000
      9       3.6174      1.00000
     10       3.7287      1.00000
     11       4.1357      1.00000
     12       4.2414      1.00000
     13       7.4044      0.00000
     14       7.7247      0.00000
     15       8.2422      0.00000
     16       8.9319      0.00000

 k-point  15 :       0.4286    0.2857    0.1429
  band No.  band energies     occupation 
      1     -26.0869      1.00000
      2     -26.0096      1.00000
      3     -25.5514      1.00000
      4     -25.3750      1.00000
      5     -25.1448      1.00000
      6     -25.0769      1.00000
      7       1.8429      1.00000
      8       2.1580      1.00000
      9       3.5488      1.00000
     10       3.6544      1.00000
     11       4.6395      1.04311
     12       4.7022      0.94524
     13       7.3201      0.00000
     14       7.5602      0.00000
     15       8.6943      0.00000
     16       9.1640      0.00000

 k-point  16 :       0.4286    0.4286    0.1429
  band No.  band energies     occupation 
      1     -26.1726      1.00000
      2     -26.1460      1.00000
      3     -25.4782      1.00000
      4     -25.4101      1.00000
      5     -25.0828      1.00000
      6     -25.0628      1.00000
      7       1.6210      1.00000
      8       1.7002      1.00000
      9       3.2223      1.00000
     10       3.3220      1.00000
     11       5.7290      0.00000
     12       5.8150      0.00000
     13       7.8479      0.00000
     14       8.0940      0.00000
     15       8.6156      0.00000
     16       9.0414      0.00000

 k-point  17 :       0.2857    0.2857    0.2857
  band No.  band energies     occupation 
      1     -25.9250      1.00000
      2     -25.8930      1.00000
      3     -25.8930      1.00000
      4     -25.2037      1.00000
      5     -25.2037      1.00000
      6     -25.1688      1.00000
      7       2.4198      1.00000
      8       3.0526      1.00000
      9       3.5223      1.00000
     10       3.5223      1.00000
     11       3.6136      1.00000
     12       3.6136      1.00000
     13       8.1906      0.00000
     14       8.1906      0.00000
     15       8.4268      0.00000
     16       8.4268      0.00000

 k-point  18 :       0.4286    0.2857    0.2857
  band No.  band energies     occupation 
      1     -26.0091      1.00000
      2     -26.0062      1.00000
      3     -25.6706      1.00000
      4     -25.4245      1.00000
      5     -25.1637      1.00000
      6     -25.1420      1.00000
      7       2.5446      1.00000
      8       2.5685      1.00000
      9       3.4430      1.00000
     10       3.5226      1.00000
     11       4.0818      1.00000
     12       4.4167      0.99995
     13       7.9881      0.00000
     14       8.0310      0.00000
     15       8.6465      0.00000
     16       8.7268      0.00000

 k-point  19 :       0.4286    0.4286    0.2857
  band No.  band energies     occupation 
      1     -26.0205      1.00000
      2     -26.0027      1.00000
      3     -25.6188      1.00000
      4     -25.4816      1.00000
      5     -25.2342      1.00000
      6     -25.1935      1.00000
      7       2.5139      1.00000
      8       2.6451      1.00000
      9       3.2091      1.00000
     10       3.3969      1.00000
     11       4.6825      1.02305
     12       4.8448     -0.05092
     13       8.3309      0.00000
     14       8.3988      0.00000
     15       8.6747      0.00000
     16       8.7382      0.00000

 k-point  20 :       0.4286    0.4286    0.4286
  band No.  band energies     occupation 
      1     -25.8764      1.00000
      2     -25.7564      1.00000
      3     -25.7564      1.00000
      4     -25.4819      1.00000
      5     -25.4819      1.00000
      6     -25.3554      1.00000
      7       3.0070      1.00000
      8       3.4257      1.00000
      9       3.4257      1.00000
     10       3.9851      1.00000
     11       3.9851      1.00000
     12       4.0132      1.00000
     13       8.7002      0.00000
     14       8.7002      0.00000
     15       8.7062      0.00000
     16       8.7062      0.00000


--------------------------------------------------------------------------------------------------------


 soft charge-density along one line, spin component           1
         0         1         2         3         4         5         6         7         8         9
 total charge-density along one line
 
 soft charge-density along one line, spin component           2
         0         1         2         3         4         5         6         7         8         9
 total charge-density along one line
 
 pseudopotential strength for first ion, spin component:           1
-28.152  -0.000   0.000   6.010   0.000  -0.000  -0.000   0.000
 -0.000 -28.152  -0.000   0.000   6.010   0.000  -0.000   0.000
  0.000  -0.000 -28.152  -0.000   0.000   6.010   0.000  -0.000
  6.010   0.000  -0.000   4.204   0.000   0.000   0.000  -0.000
  0.000   6.010   0.000   0.000   4.204  -0.000   0.000  -0.000
 -0.000   0.000   6.010   0.000  -0.000   4.204  -0.000   0.000
 -0.000  -0.000   0.000   0.000   0.000  -0.000  -6.374  -0.000
  0.000   0.000  -0.000  -0.000  -0.000   0.000  -0.000  -6.374
 -0.000  -0.000   0.000   0.000   0.000  -0.000  -0.000  -0.000
 -0.000  -0.000   0.000   0.000   0.000  -0.000   0.000   0.000
 -0.000   0.000  -0.000   0.000  -0.000   0.000  -0.000   0.000
 -0.000  -0.000   0.000   0.000   0.000  -0.000  -7.234  -0.000
  0.000   0.000  -0.000  -0.000  -0.000   0.000  -0.000  -7.234
 -0.000  -0.000   0.000   0.000   0.000  -0.000  -0.000  -0.000
 -0.000  -0.000   0.000   0.000   0.000  -0.000   0.000   0.000
 -0.000   0.000  -0.000   0.000  -0.000   0.000  -0.000   0.000
 -0.000  -0.000   0.000   0.000   0.000  -0.000  -0.000   0.000
  0.000   0.000  -0.000   0.000   0.000  -0.000   0.000  -0.000
 pseudopotential strength for first ion, spin component:           2
-28.152  -0.000   0.000   6.010   0.000  -0.000  -0.000   0.000
 -0.000 -28.152  -0.000   0.000   6.010   0.000  -0.000   0.000
  0.000  -0.000 -28.152  -0.000   0.000   6.010   0.000  -0.000
  6.010   0.000  -0.000   4.204   0.000   0.000   0.000  -0.000
  0.000   6.010   0.000   0.000   4.204  -0.000   0.000  -0.000
 -0.000   0.000   6.010   0.000  -0.000   4.204  -0.000   0.000
 -0.000  -0.000   0.000   0.000   0.000  -0.000  -6.374  -0.000
  0.000   0.000  -0.000  -0.000  -0.000   0.000  -0.000  -6.374
 -0.000  -0.000   0.000   0.000   0.000  -0.000   0.000  -0.000
 -0.000  -0.000   0.000   0.000   0.000  -0.000   0.000   0.000
 -0.000   0.000  -0.000   0.000  -0.000   0.000  -0.000   0.000
 -0.000  -0.000   0.000   0.000   0.000  -0.000  -7.234  -0.000
  0.000   0.000  -0.000  -0.000  -0.000   0.000  -0.000  -7.234
 -0.000  -0.000   0.000   0.000   0.000  -0.000   0.000  -0.000
 -0.000  -0.000   0.000   0.000   0.000  -0.000   0.000   0.000
 -0.000   0.000  -0.000   0.000  -0.000   0.000  -0.000   0.000
 -0.000  -0.000   0.000   0.000   0.000  -0.000  -0.000   0.000
  0.000   0.000  -0.000   0.000   0.000  -0.000   0.000  -0.000
 total augmentation occupancy for first ion, spin component:           1
  1.993   0.000   0.000  -0.014  -0.000  -0.000   0.000  -0.000   0.000   0.000   0.000   0.000  -0.000   0.000   0.000   0.000
  0.000   1.993   0.000  -0.000  -0.014  -0.000   0.000  -0.000   0.000   0.000   0.000   0.000   0.000  -0.000   0.000   0.000
  0.000   0.000   1.993  -0.000  -0.000  -0.014   0.000   0.000   0.000   0.000   0.000   0.000   0.000   0.000  -0.000   0.000
 -0.014  -0.000  -0.000   0.210   0.000   0.000   0.000   0.000  -0.000   0.000   0.000  -0.000  -0.000   0.000   0.000   0.000
 -0.000  -0.014  -0.000   0.000   0.210   0.000   0.000   0.000   0.000   0.000  -0.000   0.000   0.000  -0.000   0.000  -0.000
 -0.000  -0.000  -0.014   0.000   0.000   0.210   0.000  -0.000  -0.000  -0.000   0.000   0.000   0.000   0.000   0.000  -0.000
  0.000  -0.000  -0.000   0.000   0.000   0.000   5.914   0.000  -0.000   0.000   0.000  -3.298  -0.000   0.000  -0.000   0.000
  0.000  -0.000   0.000   0.000   0.000  -0.000   0.000   5.914   0.000   0.000  -0.000  -0.000  -3.298  -0.000  -0.000   0.000
 -0.000  -0.000   0.000  -0.000   0.000  -0.000  -0.000   0.000   5.603   0.000   0.000   0.000  -0.000  -3.293  -0.000   0.000
  0.000  -0.000  -0.000   0.000   0.000  -0.000   0.000   0.000   0.000   5.914   0.000  -0.000  -0.000  -0.000  -3.298  -0.000
 -0.000  -0.000   0.000   0.000   0.000   0.000   0.000  -0.000   0.000   0.000   5.603  -0.000   0.000   0.000  -0.000  -3.293
  0.000   0.000   0.000  -0.000   0.000   0.000  -3.298  -0.000   0.000  -0.000  -0.000   1.876   0.000  -0.000   0.000  -0.000
 -0.000   0.000   0.000  -0.000   0.000   0.000  -0.000  -3.298  -0.000  -0.000   0.000   0.000   1.876   0.000   0.000  -0.000
  0.000   0.000   0.000   0.000   0.000  -0.000   0.000  -0.000  -3.293  -0.000  -0.000  -0.000   0.000   1.954   0.000  -0.000
  0.000   0.000  -0.000   0.000   0.000   0.000  -0.000  -0.000  -0.000  -3.298  -0.000   0.000   0.000   0.000   1.876   0.000
  0.000   0.000   0.000   0.000   0.000   0.000   0.000   0.000   0.000  -0.000  -3.293  -0.000  -0.000   0.000   0.000   1.954
  0.000   0.000   0.000   0.000   0.000   0.000  -0.000   0.000   0.000   0.000   0.000   0.000  -0.000  -0.000  -0.000   0.000
  0.000   0.000   0.000   0.000   0.000   0.000   0.000  -0.000  -0.000  -0.000   0.000  -0.000  -0.000   0.000  -0.000  -0.000
 total augmentation occupancy for first ion, spin component:           2
  0.000   0.000   0.000   0.000   0.000   0.000  -0.000  -0.000   0.000   0.000   0.000   0.000  -0.000  -0.000  -0.000  -0.000
  0.000   0.000   0.000   0.000   0.000   0.000  -0.000   0.000   0.000  -0.000   0.000   0.000  -0.000  -0.000  -0.000   0.000
  0.000   0.000   0.000   0.000   0.000   0.000  -0.000   0.000   0.000   0.000  -0.000  -0.000   0.000   0.000  -0.000   0.000
  0.000   0.000   0.000  -0.000  -0.000  -0.000   0.000   0.000   0.000   0.000   0.000   0.000   0.000  -0.000   0.000   0.000
  0.000   0.000   0.000  -0.000  -0.000  -0.000   0.000   0.000   0.000   0.000   0.000   0.000   0.000   0.000   0.000   0.000
  0.000   0.000   0.000  -0.000  -0.000  -0.000   0.000   0.000   0.000   0.000   0.000   0.000   0.000  -0.000   0.000   0.000
 -0.000  -0.000  -0.000   0.000   0.000   0.000   0.000   0.000  -0.000   0.000  -0.000  -0.000  -0.000   0.000  -0.000   0.000
 -0.000  -0.000   0.000   0.000   0.000   0.000   0.000   0.000  -0.000   0.000  -0.000  -0.000  -0.000  -0.000  -0.000   0.000
 -0.000  -0.000   0.000   0.000   0.000   0.000  -0.000  -0.000   0.000   0.000  -0.000   0.000  -0.000  -0.000   0.000   0.000
  0.000  -0.000  -0.000   0.000   0.000   0.000   0.000   0.000  -0.000   0.000   0.000  -0.000  -0.000  -0.000  -0.000  -0.000
  0.000  -0.000  -0.000   0.000   0.000   0.000  -0.000  -0.000  -0.000   0.000   0.000   0.000   0.000  -0.000  -0.000  -0.000
  0.000   0.000   0.000   0.000   0.000   0.000  -0.000  -0.000   0.000  -0.000   0.000   0.000   0.000  -0.000   0.000   0.000
 -0.000  -0.000  -0.000   0.000   0.000   0.000  -0.000  -0.000  -0.000  -0.000   0.000   0.000   0.000   0.000   0.000   0.000
 -0.000  -0.000   0.000   0.000   0.000  -0.000   0.000  -0.000  -0.000   0.000   0.000  -0.000  -0.000   0.000   0.000  -0.000
 -0.000  -0.000  -0.000   0.000   0.000   0.000  -0.000  -0.000   0.000  -0.000  -0.000   0.000   0.000   0.000   0.000   0.000
 -0.000   0.000   0.000   0.000   0.000   0.000   0.000   0.000   0.000  -0.000  -0.000  -0.000  -0.000   0.000   0.000   0.000
  0.000   0.000   0.000   0.000   0.000   0.000  -0.000  -0.000  -0.000  -0.000   0.000  -0.000  -0.000   0.000   0.000  -0.000
  0.000   0.000   0.000   0.000   0.000   0.000  -0.000  -0.000   0.000  -0.000  -0.000  -0.000  -0.000   0.000  -0.000  -0.000


------------------------ aborting loop because EDIFF is reached ----------------------------------------


    CHARGE:  cpu time    0.08: real time    0.08
    FORLOC:  cpu time    0.00: real time    0.00
    FORNL :  cpu time    0.23: real time    0.23
    STRESS:  cpu time    0.34: real time    0.33
    FORCOR:  cpu time    0.05: real time    0.05
    FORHAR:  cpu time    0.00: real time    0.00
    MIXING:  cpu time    0.00: real time    0.00

  FORCE on cell =-STRESS in cart. coord.  units (eV):
  Direction    XX          YY          ZZ          XY          YZ          ZX
  --------------------------------------------------------------------------------------
  Alpha Z   245.91331   245.91331   245.91331
  Ewald    -635.34240  -635.34240  -635.34240    -0.00000    -0.00000    -0.00000
  Hartree    82.25015    82.25015    82.25015    -0.00000    -0.00000    -0.00000
  E(xc)     -94.96006   -94.96006   -94.96006     0.00000    -0.00000    -0.00000
  Local     203.30786   203.30786   203.30786     0.00000    -0.00000    -0.00000
  n-local   -88.32899   -84.02478   -78.39832     2.94739    -1.10665     0.46409
  augment    53.72002    53.72002    53.72002    -0.00000     0.00000     0.00000
  Kinetic   219.42000   225.44070   241.22112     1.85991    -2.13031     0.36262
  Fock        0.00000     0.00000     0.00000     0.00000     0.00000     0.00000
  -------------------------------------------------------------------------------------
  Total      -0.00121    -0.00121    -0.00121     0.00000     0.00000     0.00000
  in kB      -0.05265    -0.05265    -0.05265     0.00000     0.00000     0.00000
  external pressure =       -0.05 kB  Pullay stress =        0.00 kB


 VOLUME and BASIS-vectors are now :
 -----------------------------------------------------------------------------
  energy-cutoff  :      350.00
  volume of cell :       36.82
      direct lattice vectors                 reciprocal lattice vectors
     3.326765876  0.000000000  0.000000000     0.300592238 -0.000000000  0.000000000
     0.000000000  3.326765876  0.000000000    -0.000000000  0.300592238  0.000000000
    -0.000000000 -0.000000000  3.326765876    -0.000000000 -0.000000000  0.300592238

  length of vectors
     3.326765876  3.326765876  3.326765876     0.300592238  0.300592238  0.300592238


 FORCES acting on ions
    electron-ion (+dipol)            ewald-force                    non-local-force                 convergence-correction
 -----------------------------------------------------------------------------------------------
   0.231E-14 0.933E-16 -.110E-15   0.182E-14 -.705E-14 -.279E-14   0.889E-24 0.165E-23 0.207E-23   -.231E-13 0.569E-14 -.130E-15
   0.566E-13 0.766E-12 0.122E-12   -.262E-14 0.190E-14 0.344E-14   -.702E-23 0.406E-25 0.331E-23   0.238E-13 0.975E-14 -.136E-14
 -----------------------------------------------------------------------------------------------
   0.589E-13 0.766E-12 0.122E-12   -.805E-15 -.514E-14 0.652E-15   -.613E-23 0.169E-23 0.538E-23   0.722E-15 0.154E-13 -.149E-14
 
 
 POSITION                                       TOTAL-FORCE (eV/Angst)
 -----------------------------------------------------------------------------------
     -0.00000     -0.00000     -0.00000        -0.000000     -0.000000     -0.000000
      1.66338      1.66338      1.66338         0.000000      0.000000      0.000000
 -----------------------------------------------------------------------------------
    total drift:                                0.000000      0.000000      0.000000


--------------------------------------------------------------------------------------------------------



  FREE ENERGIE OF THE ION-ELECTRON SYSTEM (eV)
  ---------------------------------------------------
  free  energy   TOTEN  =       -20.15408447 eV

  energy  without entropy=      -20.15694957  energy(sigma->0) =      -20.15480074
 
 d Force = 0.0000000E+00[ 0.000E+00, 0.000E+00]  d Energy = 0.2241374E-02-0.224E-02
 d Force = 0.0000000E+00[ 0.000E+00, 0.000E+00]  d Ewald  = 0.6710757E+01-0.671E+01


--------------------------------------------------------------------------------------------------------


    POTLOK:  cpu time    0.07: real time    0.08


--------------------------------------------------------------------------------------------------------




--------------------------------------------------------------------------------------------------------


  
 reached required accuracy - stopping structural energy minimisation
     LOOP+:  cpu time    5.58: real time    5.58
    4ORBIT:  cpu time    0.00: real time    0.00

 total amount of memory used by VASP on root node    41736. kBytes
========================================================================

   base      :      30000. kBytes
   nonl-proj :       1619. kBytes
   fftplans  :       1184. kBytes
   grid      :       2809. kBytes
   one-center:         62. kBytes
   wavefun   :       6062. kBytes
 
  
  
 General timing and accounting informations for this job:
 ========================================================
  
                  Total CPU time used (sec):       26.716
                            User time (sec):       26.680
                          System time (sec):        0.036
                         Elapsed time (sec):       26.748
  
                   Maximum memory used (kb):       57460.
                   Average memory used (kb):           0.
  
                          Minor page faults:         6195
                          Major page faults:            0
                 Voluntary context switches:            2
