<?xml version="1.0" encoding="ISO-8859-1"?>
<modeling>
 <generator>
  <i name="program" type="string">vasp </i>
  <i name="version" type="string">5.3.3  </i>
  <i name="subversion" type="string">18Dez12 (build Sep  7 2015 22:32:56) complex                          parallel </i>
  <i name="platform" type="string">LinuxIFC </i>
  <i name="date" type="string">2022 12 22 </i>
  <i name="time" type="string">18:29:16 </i>
 </generator>
 <incar>
  <i type="string" name="SYSTEM"> Crystal</i>
  <i type="int" name="ISTART">     0</i>
  <i type="string" name="PREC">normal</i>
  <i type="string" name="ALGO"> fast</i>
  <i type="int" name="NSIM">     4</i>
  <i type="int" name="ISPIN">     2</i>
  <i type="int" name="ICHARG">     2</i>
  <i type="int" name="NELMDL">   -10</i>
  <i type="int" name="NELMIN">     4</i>
  <i type="int" name="IBRION">     2</i>
  <i name="EDIFF">      0.00001000</i>
  <i name="EDIFFG">     -0.01000000</i>
  <i type="int" name="NSW">   300</i>
  <i type="int" name="ISIF">     3</i>
  <i name="ENCUT">    350.00000000</i>
  <i type="logical" name="LREAL"> F  </i>
  <i type="int" name="ISMEAR">     2</i>
  <i name="SIGMA">      0.10000000</i>
  <i type="logical" name="LWAVE"> F  </i>
  <i type="logical" name="LCHARG"> F  </i>
 </incar>
 <kpoints>
  <generation param="Gamma">
   <v type="int" name="divisions">       7        7        7 </v>
   <v name="usershift">      0.00000000       0.00000000       0.00000000 </v>
   <v name="genvec1">      0.14285714      -0.00000000       0.00000000 </v>
   <v name="genvec2">      0.00000000       0.14285714       0.00000000 </v>
   <v name="genvec3">     -0.00000000      -0.00000000       0.14285714 </v>
   <v name="shift">      0.00000000       0.00000000       0.00000000 </v>
  </generation>
  <varray name="kpointlist" >
   <v>       0.00000000       0.00000000       0.00000000 </v>
   <v>       0.14285714      -0.00000000       0.00000000 </v>
   <v>       0.28571429       0.00000000       0.00000000 </v>
   <v>       0.42857143      -0.00000000       0.00000000 </v>
   <v>       0.14285714       0.14285714       0.00000000 </v>
   <v>       0.28571429       0.14285714       0.00000000 </v>
   <v>       0.42857143       0.14285714       0.00000000 </v>
   <v>       0.28571429       0.28571429       0.00000000 </v>
   <v>       0.42857143       0.28571429       0.00000000 </v>
   <v>       0.42857143       0.42857143       0.00000000 </v>
   <v>       0.14285714       0.14285714       0.14285714 </v>
   <v>       0.28571429       0.14285714       0.14285714 </v>
   <v>       0.42857143       0.14285714       0.14285714 </v>
   <v>       0.28571429       0.28571429       0.14285714 </v>
   <v>       0.42857143       0.28571429       0.14285714 </v>
   <v>       0.42857143       0.42857143       0.14285714 </v>
   <v>       0.28571429       0.28571429       0.28571429 </v>
   <v>       0.42857143       0.28571429       0.28571429 </v>
   <v>       0.42857143       0.42857143       0.28571429 </v>
   <v>       0.42857143       0.42857143       0.42857143 </v>
  </varray>
  <varray name="weights" >
   <v>       0.00291545 </v>
   <v>       0.01749271 </v>
   <v>       0.01749271 </v>
   <v>       0.01749271 </v>
   <v>       0.03498542 </v>
   <v>       0.06997085 </v>
   <v>       0.06997085 </v>
   <v>       0.03498542 </v>
   <v>       0.06997085 </v>
   <v>       0.03498542 </v>
   <v>       0.02332362 </v>
   <v>       0.06997085 </v>
   <v>       0.06997085 </v>
   <v>       0.06997085 </v>
   <v>       0.13994169 </v>
   <v>       0.06997085 </v>
   <v>       0.02332362 </v>
   <v>       0.06997085 </v>
   <v>       0.06997085 </v>
   <v>       0.02332362 </v>
  </varray>
 </kpoints>
 <parameters>
  <separator name="general" >
   <i type="string" name="SYSTEM">Crystal</i>
   <i type="logical" name="LCOMPAT"> F  </i>
  </separator>
  <separator name="electronic" >
   <i type="string" name="PREC">normal</i>
   <i name="ENMAX">    350.00000000</i>
   <i name="ENAUG">    355.06700000</i>
   <i name="EDIFF">      0.00001000</i>
   <i type="int" name="IALGO">    68</i>
   <i type="int" name="IWAVPR">    11</i>
   <i type="int" name="NBANDS">    16</i>
   <i name="NELECT">     22.00000000</i>
   <i type="int" name="TURBO">     0</i>
   <i type="int" name="IRESTART">     0</i>
   <i type="int" name="NREBOOT">     0</i>
   <i type="int" name="NMIN">     0</i>
   <i name="EREF">      0.00000000</i>
   <separator name="electronic smearing" >
    <i type="int" name="ISMEAR">     2</i>
    <i name="SIGMA">      0.10000000</i>
    <i name="KSPACING">      0.50000000</i>
    <i type="logical" name="KGAMMA"> T  </i>
   </separator>
   <separator name="electronic projectors" >
    <i type="logical" name="LREAL"> F  </i>
    <v name="ROPT">      0.00000000</v>
    <i type="int" name="LMAXPAW">  -100</i>
    <i type="int" name="LMAXMIX">     2</i>
    <i type="logical" name="NLSPLINE"> F  </i>
   </separator>
   <separator name="electronic startup" >
    <i type="int" name="ISTART">     0</i>
    <i type="int" name="ICHARG">     2</i>
    <i type="int" name="INIWAV">     1</i>
   </separator>
   <separator name="electronic spin" >
    <i type="int" name="ISPIN">     2</i>
    <i type="logical" name="LNONCOLLINEAR"> F  </i>
    <v name="MAGMOM">      1.00000000      1.00000000</v>
    <i name="NUPDOWN">     -1.00000000</i>
    <i type="logical" name="LSORBIT"> F  </i>
    <v name="SAXIS">      0.00000000      0.00000000      1.00000000</v>
    <i type="logical" name="LSPIRAL"> F  </i>
    <v name="QSPIRAL">      0.00000000      0.00000000      0.00000000</v>
    <i type="logical" name="LZEROZ"> F  </i>
   </separator>
   <separator name="electronic exchange-correlation" >
    <i type="logical" name="LASPH"> F  </i>
    <i type="logical" name="LMETAGGA"> F  </i>
   </separator>
   <separator name="electronic convergence" >
    <i type="int" name="NELM">    60</i>
    <i type="int" name="NELMDL">   -10</i>
    <i type="int" name="NELMIN">     4</i>
    <i name="ENINI">    350.00000000</i>
    <separator name="electronic convergence detail" >
     <i type="logical" name="LDIAG"> T  </i>
     <i type="logical" name="LSUBROT"> T  </i>
     <i name="WEIMIN">      0.00100000</i>
     <i name="EBREAK">      0.00000016</i>
     <i name="DEPER">      0.30000000</i>
     <i type="int" name="NRMM">     4</i>
     <i name="TIME">      0.40000000</i>
    </separator>
   </separator>
   <separator name="electronic mixer" >
    <i name="AMIX">      0.40000000</i>
    <i name="BMIX">      1.00000000</i>
    <i name="AMIN">      0.10000000</i>
    <i name="AMIX_MAG">      1.60000000</i>
    <i name="BMIX_MAG">      1.00000000</i>
    <separator name="electronic mixer details" >
     <i type="int" name="IMIX">     4</i>
     <i type="int" name="MAXMIX">   -45</i>
     <i name="WC">    100.00000000</i>
     <i type="int" name="INIMIX">     1</i>
     <i type="int" name="MIXPRE">     1</i>
     <i type="int" name="MREMOVE">     5</i>
    </separator>
   </separator>
   <separator name="electronic dipolcorrection" >
    <i type="logical" name="LDIPOL"> F  </i>
    <i type="logical" name="LMONO"> F  </i>
    <i type="int" name="IDIPOL">     0</i>
    <i name="EPSILON">      1.00000000</i>
    <v name="DIPOL">   -100.00000000   -100.00000000   -100.00000000</v>
    <i name="EFIELD">      0.00000000</i>
   </separator>
  </separator>
  <separator name="grids" >
   <i type="int" name="NGX">    16</i>
   <i type="int" name="NGY">    16</i>
   <i type="int" name="NGZ">    16</i>
   <i type="int" name="NGXF">    32</i>
   <i type="int" name="NGYF">    32</i>
   <i type="int" name="NGZF">    32</i>
   <i type="logical" name="ADDGRID"> F  </i>
  </separator>
  <separator name="ionic" >
   <i type="int" name="NSW">   300</i>
   <i type="int" name="IBRION">     2</i>
   <i type="int" name="ISIF">     3</i>
   <i name="PSTRESS">      0.00000000</i>
   <i name="EDIFFG">     -0.01000000</i>
   <i type="int" name="NFREE">     1</i>
   <i name="POTIM">      0.50000000</i>
   <i name="SMASS">     -3.00000000</i>
   <i name="SCALEE">      1.00000000</i>
  </separator>
  <separator name="ionic md" >
   <i name="TEBEG">      0.00010000</i>
   <i name="TEEND">      0.00010000</i>
   <i type="int" name="NBLOCK">     1</i>
   <i type="int" name="KBLOCK">   300</i>
   <i type="int" name="NPACO">   256</i>
   <i name="APACO">     16.00000000</i>
  </separator>
  <separator name="symmetry" >
   <i type="int" name="ISYM">     2</i>
   <i name="SYMPREC">      0.00001000</i>
  </separator>
  <separator name="dos" >
   <i type="logical" name="LORBIT"> F  </i>
   <v name="RWIGS">     -1.00000000</v>
   <i type="int" name="NEDOS">   301</i>
   <i name="EMIN">     10.00000000</i>
   <i name="EMAX">    -10.00000000</i>
   <i name="EFERMI">      0.00000000</i>
  </separator>
  <separator name="writing" >
   <i type="int" name="NWRITE">     2</i>
   <i type="logical" name="LWAVE"> F  </i>
   <i type="logical" name="LCHARG"> F  </i>
   <i type="logical" name="LPARD"> F  </i>
   <i type="logical" name="LVTOT"> F  </i>
   <i type="logical" name="LVHAR"> F  </i>
   <i type="logical" name="LELF"> F  </i>
   <i type="logical" name="LOPTICS"> F  </i>
   <v name="STM">      0.00000000      0.00000000      0.00000000      0.00000000      0.00000000      0.00000000      0.00000000</v>
  </separator>
  <separator name="performance" >
   <i type="int" name="NPAR">     1</i>
   <i type="int" name="NSIM">     4</i>
   <i type="int" name="NBLK">    -1</i>
   <i type="logical" name="LPLANE"> T  </i>
   <i type="logical" name="LSCALAPACK"> F  </i>
   <i type="logical" name="LSCAAWARE"> F  </i>
   <i type="logical" name="LSCALU"> F  </i>
   <i type="logical" name="LASYNC"> F  </i>
   <i type="logical" name="LORBITALREAL"> F  </i>
  </separator>
  <separator name="miscellaneous" >
   <i type="int" name="IDIOT">     3</i>
   <i type="logical" name="LMUSIC"> F  </i>
   <v name="POMASS">     92.00000000</v>
   <v name="DARWINR">      0.00000000</v>
   <v name="DARWINV">      1.00000000</v>
   <i type="logical" name="LCORR"> T  </i>
  </separator>
  <i type="logical" name="GGA_COMPAT"> T  </i>
  <i type="logical" name="LBERRY"> F  </i>
  <i type="int" name="ICORELEVEL">     0</i>
  <i type="logical" name="LDAU"> F  </i>
  <i type="int" name="I_CONSTRAINED_M">     0</i>
  <separator name="electronic exchange-correlation" >
   <i type="string" name="GGA">--</i>
   <i type="int" name="VOSKOWN">     0</i>
   <i type="logical" name="LHFCALC"> F  </i>
   <i type="string" name="PRECFOCK"></i>
   <i type="logical" name="LSYMGRAD"> F  </i>
   <i type="logical" name="LHFONE"> F  </i>
   <i type="logical" name="LRHFCALC"> F  </i>
   <i type="logical" name="LTHOMAS"> F  </i>
   <i type="logical" name="LMODELHF"> F  </i>
   <i name="ENCUT4O">     -1.00000000</i>
   <i type="int" name="EXXOEP">     0</i>
   <i type="int" name="FOURORBIT">     0</i>
   <i name="AEXX">      0.00000000</i>
   <i name="HFALPHA">      0.00000000</i>
   <i name="MCALPHA">      0.00000000</i>
   <i name="ALDAX">      1.00000000</i>
   <i name="AGGAX">      1.00000000</i>
   <i name="ALDAC">      1.00000000</i>
   <i name="AGGAC">      1.00000000</i>
   <i type="int" name="NKREDX">     1</i>
   <i type="int" name="NKREDY">     1</i>
   <i type="int" name="NKREDZ">     1</i>
   <i type="logical" name="SHIFTRED"> F  </i>
   <i type="logical" name="ODDONLY"> F  </i>
   <i type="logical" name="EVENONLY"> F  </i>
   <i type="int" name="LMAXFOCK">     0</i>
   <i type="int" name="NMAXFOCKAE">     0</i>
   <i type="logical" name="LFOCKAEDFT"> F  </i>
   <i name="HFSCREEN">      0.00000000</i>
   <i name="HFSCREENC">      0.00000000</i>
   <i type="int" name="NBANDSGWLOW">     0</i>
  </separator>
  <separator name="vdW DFT" >
   <i type="logical" name="LUSE_VDW"> F  </i>
   <i name="Zab_VDW">     -0.84910000</i>
   <i name="PARAM1">      0.12340000</i>
   <i name="PARAM2">      1.00000000</i>
   <i name="PARAM3">      0.00000000</i>
  </separator>
  <separator name="model GW" >
   <i type="int" name="MODEL_GW">     0</i>
   <i name="MODEL_EPS0">     10.98346969</i>
   <i name="MODEL_ALPHA">      1.00000000</i>
  </separator>
  <separator name="linear response parameters" >
   <i type="logical" name="LEPSILON"> F  </i>
   <i type="logical" name="LRPA"> F  </i>
   <i type="logical" name="LNABLA"> F  </i>
   <i type="logical" name="LVEL"> F  </i>
   <i type="int" name="KINTER">     0</i>
   <i name="CSHIFT">      0.10000000</i>
   <i name="OMEGAMAX">     -1.00000000</i>
   <i name="DEG_THRESHOLD">      0.00200000</i>
  </separator>
  <separator name="orbital magnetization" >
   <i type="logical" name="NUCIND"> F  </i>
   <v name="MAGPOS">      0.00000000      0.00000000      0.00000000</v>
   <i type="logical" name="LNICSALL"> T  </i>
   <i type="logical" name="ORBITALMAG"> F  </i>
   <i type="logical" name="LMAGBLOCH"> F  </i>
   <i type="logical" name="LCHIMAG"> F  </i>
   <i type="logical" name="LGAUGE"> T  </i>
   <i type="int" name="MAGATOM">     0</i>
   <v name="MAGDIPOL">      0.00000000      0.00000000      0.00000000</v>
   <v name="AVECCONST">      0.00000000      0.00000000      0.00000000</v>
  </separator>
  <separator name="response functions" >
   <i type="logical" name="LADDER"> F  </i>
   <i type="logical" name="LFXC"> F  </i>
   <i type="logical" name="LHARTREE"> T  </i>
   <i type="int" name="IBSE">     0</i>
   <i type="logical" name="LTCTE"> F  </i>
   <i type="logical" name="LTETE"> F  </i>
   <i type="logical" name="LTRIPLET"> F  </i>
   <i type="logical" name="LFXCEPS"> F  </i>
   <i type="logical" name="L2ORDER"> F  </i>
   <i type="logical" name="LUSEW"> F  </i>
   <i name="ENCUTGW">     -2.00000000</i>
   <i name="ENCUTGWSOFT">     -2.00000000</i>
   <i name="ENCUTLF">     -1.00000000</i>
   <i type="int" name="LMAXMP2">    -1</i>
   <i name="SCISSOR">      0.00000000</i>
   <i type="int" name="NOMEGA">     0</i>
   <i type="int" name="NOMEGAR">     0</i>
   <i type="int" name="NBANDSGW">    -1</i>
   <i type="int" name="NBANDSO">    -1</i>
   <i type="int" name="NBANDSV">    -1</i>
   <i type="int" name="NELM">     1</i>
   <i type="int" name="DIM">     3</i>
   <i type="int" name="ANTIRES">     0</i>
   <i name="OMEGAMAX">    -30.00000000</i>
   <i name="OMEGATL">   -200.00000000</i>
   <i type="int" name="OMEGAGRID">     0</i>
   <i name="CSHIFT">     -0.10000000</i>
   <i type="logical" name="SELFENERGY"> F  </i>
   <i type="logical" name="LSPECTRAL"> F  </i>
   <i type="logical" name="ODDONLYGW"> F  </i>
   <i type="logical" name="EVENONLYGW"> F  </i>
   <i type="int" name="NKREDLFX">     1</i>
   <i type="int" name="NKREDLFY">     1</i>
   <i type="int" name="NKREDLFZ">     1</i>
   <i type="int" name="MAXMEM">  1800</i>
   <i type="int" name="TELESCOPE">     0</i>
  </separator>
 </parameters>
 <atominfo>
  <atoms>       2 </atoms>
  <types>       1 </types>
  <array name="atoms" >
   <dimension dim="1">ion</dimension>
   <field type="string">element</field>
   <field type="int">atomtype</field>
   <set>
    <rc><c>Nb</c><c>   1</c></rc>
    <rc><c>Nb</c><c>   1</c></rc>
   </set>
  </array>
  <array name="atomtypes" >
   <dimension dim="1">type</dimension>
   <field type="int">atomspertype</field>
   <field type="string">element</field>
   <field>mass</field>
   <field>valence</field>
   <field type="string">pseudopotential</field>
   <set>
    <rc><c>   2</c><c>Nb</c><c>     92.00000000</c><c>     11.00000000</c><c>  PAW_PBE Nb_pv 08Apr2002               </c></rc>
   </set>
  </array>
 </atominfo>
 <structure name="initialpos" >
  <crystal>
   <varray name="basis" >
    <v>       3.32052000       0.00000000       0.00000000 </v>
    <v>       0.00000000       3.32052000       0.00000000 </v>
    <v>       0.00000000       0.00000000       3.32052000 </v>
   </varray>
   <i name="volume">     36.61156564 </i>
   <varray name="rec_basis" >
    <v>       0.30115765      -0.00000000       0.00000000 </v>
    <v>       0.00000000       0.30115765       0.00000000 </v>
    <v>      -0.00000000      -0.00000000       0.30115765 </v>
   </varray>
  </crystal>
  <varray name="positions" >
   <v>       0.00000000       0.00000000       0.00000000 </v>
   <v>       0.50000000       0.50000000       0.50000000 </v>
  </varray>
  <varray name="selective"  type="logical" >
   <v type="logical" >  T  T  T </v>
   <v type="logical" >  T  T  T </v>
  </varray>
  <nose>
   <v>      -3.00000000       0.00000000       0.00010000       0.00010000 </v>
  </nose>
 </structure>
 <calculation>
  <scstep>
   <time name="dav">    0.70    0.70</time>
   <time name="total">    0.78    0.78</time>
   <energy>
    <i name="alphaZ">    247.30360481 </i>
    <i name="ewald">  -1909.61255388 </i>
    <i name="hartreedc">   -279.14467189 </i>
    <i name="XCdc">     52.72693376 </i>
    <i name="pawpsdc">   1671.23129109 </i>
    <i name="pawaedc">  -1639.32392863 </i>
    <i name="eentropy">     -0.00039678 </i>
    <i name="bandstr">    -76.27354675 </i>
    <i name="atom">   2086.77339417 </i>
    <i name="e_fr_energy">    153.68012591 </i>
    <i name="e_wo_entrp">    153.68052269 </i>
    <i name="e_0_energy">    153.68022510 </i>
   </energy>
  </scstep>
  <scstep>
   <time name="dav">    0.70    0.71</time>
   <time name="total">    0.71    0.71</time>
   <energy>
    <i name="e_fr_energy">    -13.88784260 </i>
    <i name="e_wo_entrp">    -13.88862123 </i>
    <i name="e_0_energy">    -13.88803725 </i>
   </energy>
  </scstep>
  <scstep>
   <time name="dav">    0.96    0.96</time>
   <time name="total">    0.96    0.96</time>
   <energy>
    <i name="e_fr_energy">    -20.89494209 </i>
    <i name="e_wo_entrp">    -20.89555912 </i>
    <i name="e_0_energy">    -20.89509635 </i>
   </energy>
  </scstep>
  <scstep>
   <time name="dav">    0.77    0.77</time>
   <time name="total">    0.77    0.77</time>
   <energy>
    <i name="e_fr_energy">    -20.99419749 </i>
    <i name="e_wo_entrp">    -20.99502162 </i>
    <i name="e_0_energy">    -20.99440353 </i>
   </energy>
  </scstep>
  <scstep>
   <time name="dav">    0.91    0.91</time>
   <time name="total">    0.91    0.91</time>
   <energy>
    <i name="e_fr_energy">    -20.99583484 </i>
    <i name="e_wo_entrp">    -20.99668070 </i>
    <i name="e_0_energy">    -20.99604631 </i>
   </energy>
  </scstep>
  <scstep>
   <time name="dav">    0.83    0.83</time>
   <time name="total">    0.83    0.83</time>
   <energy>
    <i name="e_fr_energy">    -20.99586611 </i>
    <i name="e_wo_entrp">    -20.99671196 </i>
    <i name="e_0_energy">    -20.99607757 </i>
   </energy>
  </scstep>
  <scstep>
   <time name="dav">    0.76    0.75</time>
   <time name="total">    0.76    0.76</time>
   <energy>
    <i name="e_fr_energy">    -20.99586676 </i>
    <i name="e_wo_entrp">    -20.99671261 </i>
    <i name="e_0_energy">    -20.99607822 </i>
   </energy>
  </scstep>
  <scstep>
   <time name="dav">    0.52    0.52</time>
   <time name="total">    0.52    0.52</time>
   <energy>
    <i name="e_fr_energy">    -20.99586679 </i>
    <i name="e_wo_entrp">    -20.99671264 </i>
    <i name="e_0_energy">    -20.99607825 </i>
   </energy>
  </scstep>
  <scstep>
   <time name="dav">    0.51    0.50</time>
   <time name="total">    0.51    0.51</time>
   <energy>
    <i name="e_fr_energy">    -20.99586680 </i>
    <i name="e_wo_entrp">    -20.99671265 </i>
    <i name="e_0_energy">    -20.99607827 </i>
   </energy>
  </scstep>
  <scstep>
   <time name="dav">    0.45    0.44</time>
   <time name="total">    0.52    0.52</time>
   <energy>
    <i name="e_fr_energy">    -20.99586681 </i>
    <i name="e_wo_entrp">    -20.99671266 </i>
    <i name="e_0_energy">    -20.99607827 </i>
   </energy>
  </scstep>
  <scstep>
   <time name="diag">    0.14    0.14</time>
   <time name="diis">    0.49    0.49</time>
   <time name="orth">    0.01    0.01</time>
   <time name="total">    0.79    0.79</time>
   <energy>
    <i name="e_fr_energy">    -20.30945700 </i>
    <i name="e_wo_entrp">    -20.30840311 </i>
    <i name="e_0_energy">    -20.30919353 </i>
   </energy>
  </scstep>
  <scstep>
   <time name="diag">    0.14    0.14</time>
   <time name="diis">    0.55    0.55</time>
   <time name="orth">    0.01    0.01</time>
   <time name="total">    0.86    0.86</time>
   <energy>
    <i name="e_fr_energy">    -20.14582859 </i>
    <i name="e_wo_entrp">    -20.14755634 </i>
    <i name="e_0_energy">    -20.14626053 </i>
   </energy>
  </scstep>
  <scstep>
   <time name="diag">    0.14    0.14</time>
   <time name="diis">    0.53    0.53</time>
   <time name="orth">    0.01    0.01</time>
   <time name="total">    0.84    0.85</time>
   <energy>
    <i name="e_fr_energy">    -20.15808512 </i>
    <i name="e_wo_entrp">    -20.16009331 </i>
    <i name="e_0_energy">    -20.15858717 </i>
   </energy>
  </scstep>
  <scstep>
   <time name="diag">    0.14    0.14</time>
   <time name="diis">    0.52    0.53</time>
   <time name="orth">    0.01    0.01</time>
   <time name="total">    0.83    0.83</time>
   <energy>
    <i name="e_fr_energy">    -20.15530794 </i>
    <i name="e_wo_entrp">    -20.15746075 </i>
    <i name="e_0_energy">    -20.15584614 </i>
   </energy>
  </scstep>
  <scstep>
   <time name="diag">    0.14    0.14</time>
   <time name="diis">    0.48    0.49</time>
   <time name="orth">    0.01    0.01</time>
   <time name="total">    0.80    0.80</time>
   <energy>
    <i name="e_fr_energy">    -20.15331443 </i>
    <i name="e_wo_entrp">    -20.15561984 </i>
    <i name="e_0_energy">    -20.15389078 </i>
   </energy>
  </scstep>
  <scstep>
   <time name="diag">    0.14    0.14</time>
   <time name="diis">    0.53    0.53</time>
   <time name="orth">    0.01    0.01</time>
   <time name="total">    0.84    0.84</time>
   <energy>
    <i name="e_fr_energy">    -20.15349010 </i>
    <i name="e_wo_entrp">    -20.15574125 </i>
    <i name="e_0_energy">    -20.15405289 </i>
   </energy>
  </scstep>
  <scstep>
   <time name="diag">    0.14    0.14</time>
   <time name="diis">    0.38    0.38</time>
   <time name="orth">    0.01    0.01</time>
   <time name="total">    0.69    0.69</time>
   <energy>
    <i name="e_fr_energy">    -20.15347766 </i>
    <i name="e_wo_entrp">    -20.15573095 </i>
    <i name="e_0_energy">    -20.15404099 </i>
   </energy>
  </scstep>
  <scstep>
   <time name="diag">    0.14    0.14</time>
   <time name="diis">    0.32    0.32</time>
   <time name="orth">    0.01    0.01</time>
   <time name="total">    0.55    0.55</time>
   <energy>
    <i name="alphaZ">    247.30360481 </i>
    <i name="ewald">  -1909.61255388 </i>
    <i name="hartreedc">   -245.56809628 </i>
    <i name="XCdc">     50.89427047 </i>
    <i name="pawpsdc">   2866.09335799 </i>
    <i name="pawaedc">  -2841.29396563 </i>
    <i name="eentropy">      0.00226208 </i>
    <i name="bandstr">   -274.74574186 </i>
    <i name="atom">   2086.77339417 </i>
    <i name="e_fr_energy">    -20.15346813 </i>
    <i name="e_wo_entrp">    -20.15573021 </i>
    <i name="e_0_energy">    -20.15403365 </i>
   </energy>
  </scstep>
  <structure>
   <crystal>
    <varray name="basis" >
     <v>       3.32052000       0.00000000       0.00000000 </v>
     <v>       0.00000000       3.32052000       0.00000000 </v>
     <v>       0.00000000       0.00000000       3.32052000 </v>
    </varray>
    <i name="volume">     36.61156564 </i>
    <varray name="rec_basis" >
     <v>       0.30115765      -0.00000000       0.00000000 </v>
     <v>       0.00000000       0.30115765       0.00000000 </v>
     <v>      -0.00000000      -0.00000000       0.30115765 </v>
    </varray>
   </crystal>
   <varray name="positions" >
    <v>       0.00000000       0.00000000       0.00000000 </v>
    <v>       0.50000000       0.50000000       0.50000000 </v>
   </varray>
  </structure>
  <varray name="forces" >
   <v>      -0.00000000      -0.00000000      -0.00000000 </v>
   <v>       0.00000000       0.00000000       0.00000000 </v>
  </varray>
  <varray name="stress" >
   <v>       9.83470902       0.00000000       0.00000000 </v>
   <v>       0.00000000       9.83470902      -0.00000000 </v>
   <v>      -0.00000000      -0.00000000       9.83470902 </v>
  </varray>
  <energy>
   <i name="e_fr_energy">    -20.15346813 </i>
   <i name="e_wo_entrp">    -20.15403365 </i>
   <i name="e_0_energy">      0.00226208 </i>
  </energy>
  <time name="totalsc">   14.36   14.38</time>
 </calculation>
 <calculation>
  <scstep>
   <time name="dav">    0.74    0.73</time>
   <time name="total">    0.89    0.89</time>
   <energy>
    <i name="alphaZ">    243.32500227 </i>
    <i name="ewald">  -1899.31657156 </i>
    <i name="hartreedc">   -244.27227197 </i>
    <i name="XCdc">     50.51597797 </i>
    <i name="pawpsdc">   2865.55745962 </i>
    <i name="pawaedc">  -2840.74366274 </i>
    <i name="eentropy">      0.00139131 </i>
    <i name="bandstr">   -282.02969776 </i>
    <i name="atom">   2086.77339417 </i>
    <i name="e_fr_energy">    -20.18897868 </i>
    <i name="e_wo_entrp">    -20.19037000 </i>
    <i name="e_0_energy">    -20.18932651 </i>
   </energy>
  </scstep>
  <scstep>
   <time name="diag">    0.14    0.14</time>
   <time name="diis">    0.50    0.50</time>
   <time name="orth">    0.01    0.01</time>
   <time name="total">    0.80    0.80</time>
   <energy>
    <i name="e_fr_energy">    -20.15643538 </i>
    <i name="e_wo_entrp">    -20.15933037 </i>
    <i name="e_0_energy">    -20.15715913 </i>
   </energy>
  </scstep>
  <scstep>
   <time name="diag">    0.14    0.14</time>
   <time name="diis">    0.53    0.54</time>
   <time name="orth">    0.02    0.01</time>
   <time name="total">    0.84    0.85</time>
   <energy>
    <i name="e_fr_energy">    -20.15169729 </i>
    <i name="e_wo_entrp">    -20.15546109 </i>
    <i name="e_0_energy">    -20.15263824 </i>
   </energy>
  </scstep>
  <scstep>
   <time name="diag">    0.14    0.14</time>
   <time name="diis">    0.51    0.51</time>
   <time name="orth">    0.01    0.01</time>
   <time name="total">    0.82    0.82</time>
   <energy>
    <i name="e_fr_energy">    -20.15189531 </i>
    <i name="e_wo_entrp">    -20.15559272 </i>
    <i name="e_0_energy">    -20.15281966 </i>
   </energy>
  </scstep>
  <scstep>
   <time name="diag">    0.14    0.14</time>
   <time name="diis">    0.50    0.50</time>
   <time name="orth">    0.01    0.01</time>
   <time name="total">    0.81    0.81</time>
   <energy>
    <i name="e_fr_energy">    -20.15182401 </i>
    <i name="e_wo_entrp">    -20.15563327 </i>
    <i name="e_0_energy">    -20.15277633 </i>
   </energy>
  </scstep>
  <scstep>
   <time name="diag">    0.14    0.14</time>
   <time name="diis">    0.52    0.52</time>
   <time name="orth">    0.01    0.01</time>
   <time name="total">    0.83    0.83</time>
   <energy>
    <i name="e_fr_energy">    -20.15185141 </i>
    <i name="e_wo_entrp">    -20.15572436 </i>
    <i name="e_0_energy">    -20.15281965 </i>
   </energy>
  </scstep>
  <scstep>
   <time name="diag">    0.14    0.14</time>
   <time name="diis">    0.32    0.32</time>
   <time name="orth">    0.01    0.01</time>
   <time name="total">    0.55    0.55</time>
   <energy>
    <i name="alphaZ">    243.32500227 </i>
    <i name="ewald">  -1899.31657156 </i>
    <i name="hartreedc">   -248.95498311 </i>
    <i name="XCdc">     50.73940637 </i>
    <i name="pawpsdc">   2804.39754104 </i>
    <i name="pawaedc">  -2779.49398746 </i>
    <i name="eentropy">      0.00385801 </i>
    <i name="bandstr">   -277.62550283 </i>
    <i name="atom">   2086.77339417 </i>
    <i name="e_fr_energy">    -20.15184309 </i>
    <i name="e_wo_entrp">    -20.15570111 </i>
    <i name="e_0_energy">    -20.15280760 </i>
   </energy>
  </scstep>
  <structure>
   <crystal>
    <varray name="basis" >
     <v>       3.33852017       0.00000000       0.00000000 </v>
     <v>       0.00000000       3.33852017       0.00000000 </v>
     <v>      -0.00000000      -0.00000000       3.33852017 </v>
    </varray>
    <i name="volume">     37.21020066 </i>
    <varray name="rec_basis" >
     <v>       0.29953391      -0.00000000       0.00000000 </v>
     <v>      -0.00000000       0.29953391       0.00000000 </v>
     <v>      -0.00000000      -0.00000000       0.29953391 </v>
    </varray>
   </crystal>
   <varray name="positions" >
    <v>      -0.00000000      -0.00000000      -0.00000000 </v>
    <v>       0.50000000       0.50000000       0.50000000 </v>
   </varray>
  </structure>
  <varray name="forces" >
   <v>      -0.00000000      -0.00000000      -0.00000000 </v>
   <v>       0.00000000       0.00000000       0.00000000 </v>
  </varray>
  <varray name="stress" >
   <v>     -18.21045741      -0.00000000      -0.00000000 </v>
   <v>       0.00000000     -18.21045741      -0.00000000 </v>
   <v>      -0.00000000      -0.00000000     -18.21045741 </v>
  </varray>
  <energy>
   <i name="e_fr_energy">    -20.15184309 </i>
   <i name="e_wo_entrp">    -20.15280760 </i>
   <i name="e_0_energy">      0.00385801 </i>
  </energy>
  <time name="totalsc">    6.42    6.43</time>
 </calculation>
 <calculation>
  <scstep>
   <time name="dav">    0.77    0.77</time>
   <time name="total">    0.93    0.93</time>
   <energy>
    <i name="alphaZ">    245.91330901 </i>
    <i name="ewald">  -1906.02732904 </i>
    <i name="hartreedc">   -249.83421798 </i>
    <i name="XCdc">     50.98822971 </i>
    <i name="pawpsdc">   2803.60662145 </i>
    <i name="pawaedc">  -2778.70838312 </i>
    <i name="eentropy">      0.00392875 </i>
    <i name="bandstr">   -272.88557183 </i>
    <i name="atom">   2086.77339417 </i>
    <i name="e_fr_energy">    -20.17001887 </i>
    <i name="e_wo_entrp">    -20.17394763 </i>
    <i name="e_0_energy">    -20.17100106 </i>
   </energy>
  </scstep>
  <scstep>
   <time name="diag">    0.14    0.14</time>
   <time name="diis">    0.50    0.49</time>
   <time name="orth">    0.01    0.01</time>
   <time name="total">    0.80    0.80</time>
   <energy>
    <i name="e_fr_energy">    -20.15605448 </i>
    <i name="e_wo_entrp">    -20.15954490 </i>
    <i name="e_0_energy">    -20.15692709 </i>
   </energy>
  </scstep>
  <scstep>
   <time name="diag">    0.14    0.14</time>
   <time name="diis">    0.53    0.53</time>
   <time name="orth">    0.01    0.01</time>
   <time name="total">    0.84    0.84</time>
   <energy>
    <i name="e_fr_energy">    -20.15400096 </i>
    <i name="e_wo_entrp">    -20.15693048 </i>
    <i name="e_0_energy">    -20.15473334 </i>
   </energy>
  </scstep>
  <scstep>
   <time name="diag">    0.13    0.14</time>
   <time name="diis">    0.50    0.50</time>
   <time name="orth">    0.01    0.01</time>
   <time name="total">    0.81    0.81</time>
   <energy>
    <i name="e_fr_energy">    -20.15408608 </i>
    <i name="e_wo_entrp">    -20.15707031 </i>
    <i name="e_0_energy">    -20.15483214 </i>
   </energy>
  </scstep>
  <scstep>
   <time name="diag">    0.14    0.14</time>
   <time name="diis">    0.49    0.49</time>
   <time name="orth">    0.01    0.01</time>
   <time name="total">    0.79    0.79</time>
   <energy>
    <i name="e_fr_energy">    -20.15408000 </i>
    <i name="e_wo_entrp">    -20.15693442 </i>
    <i name="e_0_energy">    -20.15479361 </i>
   </energy>
  </scstep>
  <scstep>
   <time name="diag">    0.14    0.14</time>
   <time name="diis">    0.38    0.38</time>
   <time name="orth">    0.01    0.01</time>
   <time name="total">    0.60    0.60</time>
   <energy>
    <i name="alphaZ">    245.91330901 </i>
    <i name="ewald">  -1906.02732904 </i>
    <i name="hartreedc">   -246.72687129 </i>
    <i name="XCdc">     50.83938453 </i>
    <i name="pawpsdc">   2843.28487536 </i>
    <i name="pawaedc">  -2818.45563702 </i>
    <i name="eentropy">      0.00286510 </i>
    <i name="bandstr">   -275.75807530 </i>
    <i name="atom">   2086.77339417 </i>
    <i name="e_fr_energy">    -20.15408447 </i>
    <i name="e_wo_entrp">    -20.15694957 </i>
    <i name="e_0_energy">    -20.15480074 </i>
   </energy>
  </scstep>
  <structure>
   <crystal>
    <varray name="basis" >
     <v>       3.32676588       0.00000000       0.00000000 </v>
     <v>       0.00000000       3.32676588       0.00000000 </v>
     <v>      -0.00000000      -0.00000000       3.32676588 </v>
    </varray>
    <i name="volume">     36.81855283 </i>
    <varray name="rec_basis" >
     <v>       0.30059224      -0.00000000       0.00000000 </v>
     <v>      -0.00000000       0.30059224       0.00000000 </v>
     <v>      -0.00000000      -0.00000000       0.30059224 </v>
    </varray>
   </crystal>
   <varray name="positions" >
    <v>      -0.00000000      -0.00000000      -0.00000000 </v>
    <v>       0.50000000       0.50000000       0.50000000 </v>
   </varray>
  </structure>
  <varray name="forces" >
   <v>      -0.00000000      -0.00000000      -0.00000000 </v>
   <v>       0.00000000       0.00000000       0.00000000 </v>
  </varray>
  <varray name="stress" >
   <v>      -0.05264519       0.00000000       0.00000000 </v>
   <v>       0.00000000      -0.05264519       0.00000000 </v>
   <v>      -0.00000000       0.00000000      -0.05264519 </v>
  </varray>
  <energy>
   <i name="e_fr_energy">    -20.15408447 </i>
   <i name="e_wo_entrp">    -20.15480074 </i>
   <i name="e_0_energy">      0.00286510 </i>
  </energy>
  <time name="totalsc">    5.58    5.58</time>
  <eigenvalues>
   <array>
    <dimension dim="1">band</dimension>
    <dimension dim="2">kpoint</dimension>
    <dimension dim="3">spin</dimension>
    <field>eigene</field>
    <field>occ</field>
    <set>
     <set comment="spin 1">
      <set comment="kpoint 1">
       <r>  -25.8572    1.0000 </r>
       <r>  -25.8572    1.0000 </r>
       <r>  -25.8572    1.0000 </r>
       <r>  -24.9913    1.0000 </r>
       <r>  -24.9913    1.0000 </r>
       <r>  -24.9913    1.0000 </r>
       <r>   -1.0884    1.0000 </r>
       <r>    1.1894    1.0000 </r>
       <r>    1.1894    1.0000 </r>
       <r>    5.1487    0.0000 </r>
       <r>    5.1487    0.0000 </r>
       <r>    5.1487    0.0000 </r>
       <r>    7.9802    0.0000 </r>
       <r>    7.9802    0.0000 </r>
       <r>   10.2237    0.0000 </r>
       <r>   10.2237    0.0000 </r>
      </set>
      <set comment="kpoint 2">
       <r>  -25.8602    1.0000 </r>
       <r>  -25.8130    1.0000 </r>
       <r>  -25.8130    1.0000 </r>
       <r>  -25.0843    1.0000 </r>
       <r>  -25.0325    1.0000 </r>
       <r>  -25.0325    1.0000 </r>
       <r>   -0.6813    1.0000 </r>
       <r>    1.4154    1.0000 </r>
       <r>    1.5247    1.0000 </r>
       <r>    5.1171    0.0000 </r>
       <r>    5.1171    0.0000 </r>
       <r>    5.3391    0.0000 </r>
       <r>    7.4165    0.0000 </r>
       <r>    8.1831    0.0000 </r>
       <r>    9.0800    0.0000 </r>
       <r>    9.0800    0.0000 </r>
      </set>
      <set comment="kpoint 3">
       <r>  -25.8437    1.0000 </r>
       <r>  -25.6897    1.0000 </r>
       <r>  -25.6897    1.0000 </r>
       <r>  -25.3132    1.0000 </r>
       <r>  -25.1490    1.0000 </r>
       <r>  -25.1490    1.0000 </r>
       <r>    0.4069    1.0000 </r>
       <r>    2.0822    1.0000 </r>
       <r>    2.2687    1.0000 </r>
       <r>    5.1421    0.0000 </r>
       <r>    5.1421    0.0000 </r>
       <r>    5.8947    0.0000 </r>
       <r>    6.0816    0.0000 </r>
       <r>    7.4472    0.0000 </r>
       <r>    7.4472    0.0000 </r>
       <r>    8.6892    0.0000 </r>
      </set>
      <set comment="kpoint 4">
       <r>  -25.7558    1.0000 </r>
       <r>  -25.5682    1.0000 </r>
       <r>  -25.5132    1.0000 </r>
       <r>  -25.5132    1.0000 </r>
       <r>  -25.3201    1.0000 </r>
       <r>  -25.3201    1.0000 </r>
       <r>    1.7569    1.0000 </r>
       <r>    2.5778    1.0000 </r>
       <r>    3.1524    1.0000 </r>
       <r>    4.5432    0.9952 </r>
       <r>    5.4485    0.0000 </r>
       <r>    5.4485    0.0000 </r>
       <r>    6.1999    0.0000 </r>
       <r>    6.1999    0.0000 </r>
       <r>    6.7666    0.0000 </r>
       <r>    7.8535    0.0000 </r>
      </set>
      <set comment="kpoint 5">
       <r>  -25.9338    1.0000 </r>
       <r>  -25.7724    1.0000 </r>
       <r>  -25.7045    1.0000 </r>
       <r>  -25.2455    1.0000 </r>
       <r>  -25.0688    1.0000 </r>
       <r>  -24.9933    1.0000 </r>
       <r>   -0.3120    1.0000 </r>
       <r>    1.6529    1.0000 </r>
       <r>    1.8248    1.0000 </r>
       <r>    4.7019    0.9467 </r>
       <r>    4.9901    0.0030 </r>
       <r>    5.9335    0.0000 </r>
       <r>    7.4979    0.0000 </r>
       <r>    7.8465    0.0000 </r>
       <r>    8.0116    0.0000 </r>
       <r>    8.1309    0.0000 </r>
      </set>
      <set comment="kpoint 6">
       <r>  -25.9734    1.0000 </r>
       <r>  -25.6596    1.0000 </r>
       <r>  -25.5435    1.0000 </r>
       <r>  -25.5058    1.0000 </r>
       <r>  -25.1721    1.0000 </r>
       <r>  -25.0470    1.0000 </r>
       <r>    0.6425    1.0000 </r>
       <r>    2.1655    1.0000 </r>
       <r>    2.6068    1.0000 </r>
       <r>    4.4578    0.9996 </r>
       <r>    4.7789    0.2431 </r>
       <r>    6.3514    0.0000 </r>
       <r>    6.7916    0.0000 </r>
       <r>    6.7961    0.0000 </r>
       <r>    6.8900    0.0000 </r>
       <r>    8.4954    0.0000 </r>
      </set>
      <set comment="kpoint 7">
       <r>  -25.9222    1.0000 </r>
       <r>  -25.7573    1.0000 </r>
       <r>  -25.4992    1.0000 </r>
       <r>  -25.3600    1.0000 </r>
       <r>  -25.3250    1.0000 </r>
       <r>  -25.1821    1.0000 </r>
       <r>    1.7551    1.0000 </r>
       <r>    2.4370    1.0000 </r>
       <r>    3.4080    1.0000 </r>
       <r>    4.3019    1.0000 </r>
       <r>    4.6038    1.0113 </r>
       <r>    5.2320    0.0000 </r>
       <r>    6.3309    0.0000 </r>
       <r>    6.4112    0.0000 </r>
       <r>    7.8207    0.0000 </r>
       <r>    8.9515    0.0000 </r>
      </set>
      <set comment="kpoint 8">
       <r>  -26.1019    1.0000 </r>
       <r>  -25.7865    1.0000 </r>
       <r>  -25.5770    1.0000 </r>
       <r>  -25.3480    1.0000 </r>
       <r>  -25.2390    1.0000 </r>
       <r>  -24.9979    1.0000 </r>
       <r>    1.1042    1.0000 </r>
       <r>    2.1058    1.0000 </r>
       <r>    3.6004    1.0000 </r>
       <r>    3.8467    1.0000 </r>
       <r>    4.8028    0.0644 </r>
       <r>    5.0097    0.0017 </r>
       <r>    6.4424    0.0000 </r>
       <r>    7.6074    0.0000 </r>
       <r>    8.0552    0.0000 </r>
       <r>    8.2276    0.0000 </r>
      </set>
      <set comment="kpoint 9">
       <r>  -26.1270    1.0000 </r>
       <r>  -26.0161    1.0000 </r>
       <r>  -25.4621    1.0000 </r>
       <r>  -25.3413    1.0000 </r>
       <r>  -25.1736    1.0000 </r>
       <r>  -25.0473    1.0000 </r>
       <r>    1.4736    1.0000 </r>
       <r>    1.8200    1.0000 </r>
       <r>    3.6970    1.0000 </r>
       <r>    4.0868    1.0000 </r>
       <r>    4.6096    1.0158 </r>
       <r>    5.0899    0.0000 </r>
       <r>    6.9368    0.0000 </r>
       <r>    7.4953    0.0000 </r>
       <r>    8.8432    0.0000 </r>
       <r>    9.3017    0.0000 </r>
      </set>
      <set comment="kpoint 10">
       <r>  -26.2331    1.0000 </r>
       <r>  -26.1942    1.0000 </r>
       <r>  -25.4149    1.0000 </r>
       <r>  -25.3717    1.0000 </r>
       <r>  -25.0474    1.0000 </r>
       <r>  -25.0017    1.0000 </r>
       <r>    1.2150    1.0000 </r>
       <r>    1.3260    1.0000 </r>
       <r>    3.2639    1.0000 </r>
       <r>    3.3950    1.0000 </r>
       <r>    6.1156    0.0000 </r>
       <r>    6.4658    0.0000 </r>
       <r>    7.6216    0.0000 </r>
       <r>    8.0259    0.0000 </r>
       <r>    8.5844    0.0000 </r>
       <r>    9.5737    0.0000 </r>
      </set>
      <set comment="kpoint 11">
       <r>  -25.8861    1.0000 </r>
       <r>  -25.8861    1.0000 </r>
       <r>  -25.5725    1.0000 </r>
       <r>  -25.3753    1.0000 </r>
       <r>  -25.0384    1.0000 </r>
       <r>  -25.0384    1.0000 </r>
       <r>    0.0433    1.0000 </r>
       <r>    2.0019    1.0000 </r>
       <r>    2.0019    1.0000 </r>
       <r>    4.5692    0.9964 </r>
       <r>    4.5692    0.9964 </r>
       <r>    6.3552    0.0000 </r>
       <r>    6.5628    0.0000 </r>
       <r>    7.7609    0.0000 </r>
       <r>    7.7609    0.0000 </r>
       <r>    9.2488    0.0000 </r>
      </set>
      <set comment="kpoint 12">
       <r>  -25.9753    1.0000 </r>
       <r>  -25.7531    1.0000 </r>
       <r>  -25.6148    1.0000 </r>
       <r>  -25.4103    1.0000 </r>
       <r>  -25.1658    1.0000 </r>
       <r>  -25.0513    1.0000 </r>
       <r>    0.9335    1.0000 </r>
       <r>    2.5012    1.0000 </r>
       <r>    2.7052    1.0000 </r>
       <r>    4.2678    1.0000 </r>
       <r>    4.2897    1.0000 </r>
       <r>    5.1252    0.0000 </r>
       <r>    7.1398    0.0000 </r>
       <r>    7.5960    0.0000 </r>
       <r>    7.7640    0.0000 </r>
       <r>    8.3824    0.0000 </r>
      </set>
      <set comment="kpoint 13">
       <r>  -25.9674    1.0000 </r>
       <r>  -25.8383    1.0000 </r>
       <r>  -25.5621    1.0000 </r>
       <r>  -25.3524    1.0000 </r>
       <r>  -25.2570    1.0000 </r>
       <r>  -25.1304    1.0000 </r>
       <r>    1.9077    1.0000 </r>
       <r>    2.6524    1.0000 </r>
       <r>    3.1996    1.0000 </r>
       <r>    3.8445    1.0000 </r>
       <r>    4.5554    0.9951 </r>
       <r>    4.8467   -0.0514 </r>
       <r>    6.6290    0.0000 </r>
       <r>    6.8080    0.0000 </r>
       <r>    8.5107    0.0000 </r>
       <r>    8.8297    0.0000 </r>
      </set>
      <set comment="kpoint 14">
       <r>  -26.0469    1.0000 </r>
       <r>  -25.8270    1.0000 </r>
       <r>  -25.7083    1.0000 </r>
       <r>  -25.2580    1.0000 </r>
       <r>  -25.2318    1.0000 </r>
       <r>  -25.0519    1.0000 </r>
       <r>    1.5014    1.0000 </r>
       <r>    2.5074    1.0000 </r>
       <r>    3.6174    1.0000 </r>
       <r>    3.7287    1.0000 </r>
       <r>    4.1357    1.0000 </r>
       <r>    4.2414    1.0000 </r>
       <r>    7.4044    0.0000 </r>
       <r>    7.7247    0.0000 </r>
       <r>    8.2422    0.0000 </r>
       <r>    8.9319    0.0000 </r>
      </set>
      <set comment="kpoint 15">
       <r>  -26.0869    1.0000 </r>
       <r>  -26.0096    1.0000 </r>
       <r>  -25.5514    1.0000 </r>
       <r>  -25.3750    1.0000 </r>
       <r>  -25.1448    1.0000 </r>
       <r>  -25.0769    1.0000 </r>
       <r>    1.8429    1.0000 </r>
       <r>    2.1580    1.0000 </r>
       <r>    3.5488    1.0000 </r>
       <r>    3.6544    1.0000 </r>
       <r>    4.6395    1.0431 </r>
       <r>    4.7022    0.9452 </r>
       <r>    7.3201    0.0000 </r>
       <r>    7.5602    0.0000 </r>
       <r>    8.6943    0.0000 </r>
       <r>    9.1640    0.0000 </r>
      </set>
      <set comment="kpoint 16">
       <r>  -26.1726    1.0000 </r>
       <r>  -26.1460    1.0000 </r>
       <r>  -25.4782    1.0000 </r>
       <r>  -25.4101    1.0000 </r>
       <r>  -25.0828    1.0000 </r>
       <r>  -25.0628    1.0000 </r>
       <r>    1.6210    1.0000 </r>
       <r>    1.7002    1.0000 </r>
       <r>    3.2223    1.0000 </r>
       <r>    3.3220    1.0000 </r>
       <r>    5.7290    0.0000 </r>
       <r>    5.8150    0.0000 </r>
       <r>    7.8479    0.0000 </r>
       <r>    8.0940    0.0000 </r>
       <r>    8.6156    0.0000 </r>
       <r>    9.0414    0.0000 </r>
      </set>
      <set comment="kpoint 17">
       <r>  -25.9250    1.0000 </r>
       <r>  -25.8930    1.0000 </r>
       <r>  -25.8930    1.0000 </r>
       <r>  -25.2037    1.0000 </r>
       <r>  -25.2037    1.0000 </r>
       <r>  -25.1688    1.0000 </r>
       <r>    2.4198    1.0000 </r>
       <r>    3.0526    1.0000 </r>
       <r>    3.5223    1.0000 </r>
       <r>    3.5223    1.0000 </r>
       <r>    3.6136    1.0000 </r>
       <r>    3.6136    1.0000 </r>
       <r>    8.1906    0.0000 </r>
       <r>    8.1906    0.0000 </r>
       <r>    8.4268    0.0000 </r>
       <r>    8.4268    0.0000 </r>
      </set>
      <set comment="kpoint 18">
       <r>  -26.0091    1.0000 </r>
       <r>  -26.0062    1.0000 </r>
       <r>  -25.6706    1.0000 </r>
       <r>  -25.4245    1.0000 </r>
       <r>  -25.1637    1.0000 </r>
       <r>  -25.1420    1.0000 </r>
       <r>    2.5446    1.0000 </r>
       <r>    2.5685    1.0000 </r>
       <r>    3.4430    1.0000 </r>
       <r>    3.5226    1.0000 </r>
       <r>    4.0818    1.0000 </r>
       <r>    4.4167    1.0000 </r>
       <r>    7.9881    0.0000 </r>
       <r>    8.0310    0.0000 </r>
       <r>    8.6465    0.0000 </r>
       <r>    8.7268    0.0000 </r>
      </set>
      <set comment="kpoint 19">
       <r>  -26.0205    1.0000 </r>
       <r>  -26.0028    1.0000 </r>
       <r>  -25.6188    1.0000 </r>
       <r>  -25.4816    1.0000 </r>
       <r>  -25.2342    1.0000 </r>
       <r>  -25.1935    1.0000 </r>
       <r>    2.5139    1.0000 </r>
       <r>    2.6451    1.0000 </r>
       <r>    3.2091    1.0000 </r>
       <r>    3.3969    1.0000 </r>
       <r>    4.6825    1.0231 </r>
       <r>    4.8448   -0.0509 </r>
       <r>    8.3309    0.0000 </r>
       <r>    8.3988    0.0000 </r>
       <r>    8.6747    0.0000 </r>
       <r>    8.7382    0.0000 </r>
      </set>
      <set comment="kpoint 20">
       <r>  -25.8764    1.0000 </r>
       <r>  -25.7564    1.0000 </r>
       <r>  -25.7564    1.0000 </r>
       <r>  -25.4819    1.0000 </r>
       <r>  -25.4819    1.0000 </r>
       <r>  -25.3554    1.0000 </r>
       <r>    3.0070    1.0000 </r>
       <r>    3.4257    1.0000 </r>
       <r>    3.4257    1.0000 </r>
       <r>    3.9851    1.0000 </r>
       <r>    3.9851    1.0000 </r>
       <r>    4.0132    1.0000 </r>
       <r>    8.7002    0.0000 </r>
       <r>    8.7002    0.0000 </r>
       <r>    8.7062    0.0000 </r>
       <r>    8.7062    0.0000 </r>
      </set>
     </set>
     <set comment="spin 2">
      <set comment="kpoint 1">
       <r>  -25.8572    1.0000 </r>
       <r>  -25.8572    1.0000 </r>
       <r>  -25.8572    1.0000 </r>
       <r>  -24.9913    1.0000 </r>
       <r>  -24.9913    1.0000 </r>
       <r>  -24.9913    1.0000 </r>
       <r>   -1.0884    1.0000 </r>
       <r>    1.1894    1.0000 </r>
       <r>    1.1894    1.0000 </r>
       <r>    5.1487    0.0000 </r>
       <r>    5.1487    0.0000 </r>
       <r>    5.1487    0.0000 </r>
       <r>    7.9802    0.0000 </r>
       <r>    7.9802    0.0000 </r>
       <r>   10.2237    0.0000 </r>
       <r>   10.2237    0.0000 </r>
      </set>
      <set comment="kpoint 2">
       <r>  -25.8602    1.0000 </r>
       <r>  -25.8130    1.0000 </r>
       <r>  -25.8130    1.0000 </r>
       <r>  -25.0843    1.0000 </r>
       <r>  -25.0325    1.0000 </r>
       <r>  -25.0325    1.0000 </r>
       <r>   -0.6813    1.0000 </r>
       <r>    1.4154    1.0000 </r>
       <r>    1.5247    1.0000 </r>
       <r>    5.1171    0.0000 </r>
       <r>    5.1171    0.0000 </r>
       <r>    5.3391    0.0000 </r>
       <r>    7.4165    0.0000 </r>
       <r>    8.1831    0.0000 </r>
       <r>    9.0800    0.0000 </r>
       <r>    9.0800    0.0000 </r>
      </set>
      <set comment="kpoint 3">
       <r>  -25.8437    1.0000 </r>
       <r>  -25.6897    1.0000 </r>
       <r>  -25.6897    1.0000 </r>
       <r>  -25.3132    1.0000 </r>
       <r>  -25.1490    1.0000 </r>
       <r>  -25.1490    1.0000 </r>
       <r>    0.4069    1.0000 </r>
       <r>    2.0822    1.0000 </r>
       <r>    2.2687    1.0000 </r>
       <r>    5.1421    0.0000 </r>
       <r>    5.1421    0.0000 </r>
       <r>    5.8947    0.0000 </r>
       <r>    6.0816    0.0000 </r>
       <r>    7.4472    0.0000 </r>
       <r>    7.4472    0.0000 </r>
       <r>    8.6892    0.0000 </r>
      </set>
      <set comment="kpoint 4">
       <r>  -25.7558    1.0000 </r>
       <r>  -25.5682    1.0000 </r>
       <r>  -25.5132    1.0000 </r>
       <r>  -25.5132    1.0000 </r>
       <r>  -25.3201    1.0000 </r>
       <r>  -25.3201    1.0000 </r>
       <r>    1.7569    1.0000 </r>
       <r>    2.5778    1.0000 </r>
       <r>    3.1524    1.0000 </r>
       <r>    4.5432    0.9952 </r>
       <r>    5.4485    0.0000 </r>
       <r>    5.4485    0.0000 </r>
       <r>    6.1999    0.0000 </r>
       <r>    6.1999    0.0000 </r>
       <r>    6.7666    0.0000 </r>
       <r>    7.8535    0.0000 </r>
      </set>
      <set comment="kpoint 5">
       <r>  -25.9338    1.0000 </r>
       <r>  -25.7724    1.0000 </r>
       <r>  -25.7045    1.0000 </r>
       <r>  -25.2455    1.0000 </r>
       <r>  -25.0688    1.0000 </r>
       <r>  -24.9933    1.0000 </r>
       <r>   -0.3120    1.0000 </r>
       <r>    1.6529    1.0000 </r>
       <r>    1.8248    1.0000 </r>
       <r>    4.7019    0.9467 </r>
       <r>    4.9901    0.0030 </r>
       <r>    5.9335    0.0000 </r>
       <r>    7.4979    0.0000 </r>
       <r>    7.8465    0.0000 </r>
       <r>    8.0116    0.0000 </r>
       <r>    8.1309    0.0000 </r>
      </set>
      <set comment="kpoint 6">
       <r>  -25.9734    1.0000 </r>
       <r>  -25.6596    1.0000 </r>
       <r>  -25.5435    1.0000 </r>
       <r>  -25.5058    1.0000 </r>
       <r>  -25.1721    1.0000 </r>
       <r>  -25.0470    1.0000 </r>
       <r>    0.6425    1.0000 </r>
       <r>    2.1655    1.0000 </r>
       <r>    2.6068    1.0000 </r>
       <r>    4.4578    0.9996 </r>
       <r>    4.7789    0.2431 </r>
       <r>    6.3514    0.0000 </r>
       <r>    6.7916    0.0000 </r>
       <r>    6.7961    0.0000 </r>
       <r>    6.8900    0.0000 </r>
       <r>    8.4954    0.0000 </r>
      </set>
      <set comment="kpoint 7">
       <r>  -25.9222    1.0000 </r>
       <r>  -25.7573    1.0000 </r>
       <r>  -25.4992    1.0000 </r>
       <r>  -25.3600    1.0000 </r>
       <r>  -25.3250    1.0000 </r>
       <r>  -25.1821    1.0000 </r>
       <r>    1.7551    1.0000 </r>
       <r>    2.4370    1.0000 </r>
       <r>    3.4080    1.0000 </r>
       <r>    4.3019    1.0000 </r>
       <r>    4.6038    1.0113 </r>
       <r>    5.2320    0.0000 </r>
       <r>    6.3309    0.0000 </r>
       <r>    6.4112    0.0000 </r>
       <r>    7.8207    0.0000 </r>
       <r>    8.9489    0.0000 </r>
      </set>
      <set comment="kpoint 8">
       <r>  -26.1019    1.0000 </r>
       <r>  -25.7865    1.0000 </r>
       <r>  -25.5770    1.0000 </r>
       <r>  -25.3480    1.0000 </r>
       <r>  -25.2390    1.0000 </r>
       <r>  -24.9979    1.0000 </r>
       <r>    1.1042    1.0000 </r>
       <r>    2.1058    1.0000 </r>
       <r>    3.6004    1.0000 </r>
       <r>    3.8467    1.0000 </r>
       <r>    4.8028    0.0644 </r>
       <r>    5.0097    0.0017 </r>
       <r>    6.4424    0.0000 </r>
       <r>    7.6074    0.0000 </r>
       <r>    8.0552    0.0000 </r>
       <r>    8.2276    0.0000 </r>
      </set>
      <set comment="kpoint 9">
       <r>  -26.1270    1.0000 </r>
       <r>  -26.0161    1.0000 </r>
       <r>  -25.4621    1.0000 </r>
       <r>  -25.3413    1.0000 </r>
       <r>  -25.1736    1.0000 </r>
       <r>  -25.0473    1.0000 </r>
       <r>    1.4736    1.0000 </r>
       <r>    1.8200    1.0000 </r>
       <r>    3.6970    1.0000 </r>
       <r>    4.0868    1.0000 </r>
       <r>    4.6096    1.0158 </r>
       <r>    5.0899    0.0000 </r>
       <r>    6.9368    0.0000 </r>
       <r>    7.4953    0.0000 </r>
       <r>    8.8432    0.0000 </r>
       <r>    9.3017    0.0000 </r>
      </set>
      <set comment="kpoint 10">
       <r>  -26.2331    1.0000 </r>
       <r>  -26.1942    1.0000 </r>
       <r>  -25.4149    1.0000 </r>
       <r>  -25.3717    1.0000 </r>
       <r>  -25.0474    1.0000 </r>
       <r>  -25.0017    1.0000 </r>
       <r>    1.2150    1.0000 </r>
       <r>    1.3260    1.0000 </r>
       <r>    3.2639    1.0000 </r>
       <r>    3.3950    1.0000 </r>
       <r>    6.1156    0.0000 </r>
       <r>    6.4658    0.0000 </r>
       <r>    7.6216    0.0000 </r>
       <r>    8.0259    0.0000 </r>
       <r>    8.5844    0.0000 </r>
       <r>    9.5737    0.0000 </r>
      </set>
      <set comment="kpoint 11">
       <r>  -25.8861    1.0000 </r>
       <r>  -25.8861    1.0000 </r>
       <r>  -25.5725    1.0000 </r>
       <r>  -25.3753    1.0000 </r>
       <r>  -25.0384    1.0000 </r>
       <r>  -25.0384    1.0000 </r>
       <r>    0.0433    1.0000 </r>
       <r>    2.0019    1.0000 </r>
       <r>    2.0019    1.0000 </r>
       <r>    4.5692    0.9964 </r>
       <r>    4.5692    0.9964 </r>
       <r>    6.3552    0.0000 </r>
       <r>    6.5628    0.0000 </r>
       <r>    7.7608    0.0000 </r>
       <r>    7.7608    0.0000 </r>
       <r>    9.2488    0.0000 </r>
      </set>
      <set comment="kpoint 12">
       <r>  -25.9753    1.0000 </r>
       <r>  -25.7531    1.0000 </r>
       <r>  -25.6148    1.0000 </r>
       <r>  -25.4103    1.0000 </r>
       <r>  -25.1658    1.0000 </r>
       <r>  -25.0513    1.0000 </r>
       <r>    0.9335    1.0000 </r>
       <r>    2.5012    1.0000 </r>
       <r>    2.7052    1.0000 </r>
       <r>    4.2678    1.0000 </r>
       <r>    4.2897    1.0000 </r>
       <r>    5.1252    0.0000 </r>
       <r>    7.1398    0.0000 </r>
       <r>    7.5960    0.0000 </r>
       <r>    7.7640    0.0000 </r>
       <r>    8.3824    0.0000 </r>
      </set>
      <set comment="kpoint 13">
       <r>  -25.9674    1.0000 </r>
       <r>  -25.8383    1.0000 </r>
       <r>  -25.5621    1.0000 </r>
       <r>  -25.3524    1.0000 </r>
       <r>  -25.2570    1.0000 </r>
       <r>  -25.1304    1.0000 </r>
       <r>    1.9077    1.0000 </r>
       <r>    2.6524    1.0000 </r>
       <r>    3.1996    1.0000 </r>
       <r>    3.8445    1.0000 </r>
       <r>    4.5554    0.9951 </r>
       <r>    4.8467   -0.0514 </r>
       <r>    6.6290    0.0000 </r>
       <r>    6.8080    0.0000 </r>
       <r>    8.5107    0.0000 </r>
       <r>    8.8297    0.0000 </r>
      </set>
      <set comment="kpoint 14">
       <r>  -26.0469    1.0000 </r>
       <r>  -25.8270    1.0000 </r>
       <r>  -25.7083    1.0000 </r>
       <r>  -25.2580    1.0000 </r>
       <r>  -25.2318    1.0000 </r>
       <r>  -25.0519    1.0000 </r>
       <r>    1.5014    1.0000 </r>
       <r>    2.5074    1.0000 </r>
       <r>    3.6174    1.0000 </r>
       <r>    3.7287    1.0000 </r>
       <r>    4.1357    1.0000 </r>
       <r>    4.2414    1.0000 </r>
       <r>    7.4044    0.0000 </r>
       <r>    7.7247    0.0000 </r>
       <r>    8.2422    0.0000 </r>
       <r>    8.9319    0.0000 </r>
      </set>
      <set comment="kpoint 15">
       <r>  -26.0869    1.0000 </r>
       <r>  -26.0096    1.0000 </r>
       <r>  -25.5514    1.0000 </r>
       <r>  -25.3750    1.0000 </r>
       <r>  -25.1448    1.0000 </r>
       <r>  -25.0769    1.0000 </r>
       <r>    1.8429    1.0000 </r>
       <r>    2.1580    1.0000 </r>
       <r>    3.5488    1.0000 </r>
       <r>    3.6544    1.0000 </r>
       <r>    4.6395    1.0431 </r>
       <r>    4.7022    0.9452 </r>
       <r>    7.3201    0.0000 </r>
       <r>    7.5602    0.0000 </r>
       <r>    8.6943    0.0000 </r>
       <r>    9.1640    0.0000 </r>
      </set>
      <set comment="kpoint 16">
       <r>  -26.1726    1.0000 </r>
       <r>  -26.1460    1.0000 </r>
       <r>  -25.4782    1.0000 </r>
       <r>  -25.4101    1.0000 </r>
       <r>  -25.0828    1.0000 </r>
       <r>  -25.0628    1.0000 </r>
       <r>    1.6210    1.0000 </r>
       <r>    1.7002    1.0000 </r>
       <r>    3.2223    1.0000 </r>
       <r>    3.3220    1.0000 </r>
       <r>    5.7290    0.0000 </r>
       <r>    5.8150    0.0000 </r>
       <r>    7.8479    0.0000 </r>
       <r>    8.0940    0.0000 </r>
       <r>    8.6156    0.0000 </r>
       <r>    9.0414    0.0000 </r>
      </set>
      <set comment="kpoint 17">
       <r>  -25.9250    1.0000 </r>
       <r>  -25.8930    1.0000 </r>
       <r>  -25.8930    1.0000 </r>
       <r>  -25.2037    1.0000 </r>
       <r>  -25.2037    1.0000 </r>
       <r>  -25.1688    1.0000 </r>
       <r>    2.4198    1.0000 </r>
       <r>    3.0526    1.0000 </r>
       <r>    3.5223    1.0000 </r>
       <r>    3.5223    1.0000 </r>
       <r>    3.6136    1.0000 </r>
       <r>    3.6136    1.0000 </r>
       <r>    8.1906    0.0000 </r>
       <r>    8.1906    0.0000 </r>
       <r>    8.4268    0.0000 </r>
       <r>    8.4268    0.0000 </r>
      </set>
      <set comment="kpoint 18">
       <r>  -26.0091    1.0000 </r>
       <r>  -26.0062    1.0000 </r>
       <r>  -25.6706    1.0000 </r>
       <r>  -25.4245    1.0000 </r>
       <r>  -25.1637    1.0000 </r>
       <r>  -25.1420    1.0000 </r>
       <r>    2.5446    1.0000 </r>
       <r>    2.5685    1.0000 </r>
       <r>    3.4430    1.0000 </r>
       <r>    3.5226    1.0000 </r>
       <r>    4.0818    1.0000 </r>
       <r>    4.4167    1.0000 </r>
       <r>    7.9881    0.0000 </r>
       <r>    8.0310    0.0000 </r>
       <r>    8.6465    0.0000 </r>
       <r>    8.7268    0.0000 </r>
      </set>
      <set comment="kpoint 19">
       <r>  -26.0205    1.0000 </r>
       <r>  -26.0027    1.0000 </r>
       <r>  -25.6188    1.0000 </r>
       <r>  -25.4816    1.0000 </r>
       <r>  -25.2342    1.0000 </r>
       <r>  -25.1935    1.0000 </r>
       <r>    2.5139    1.0000 </r>
       <r>    2.6451    1.0000 </r>
       <r>    3.2091    1.0000 </r>
       <r>    3.3969    1.0000 </r>
       <r>    4.6825    1.0231 </r>
       <r>    4.8448   -0.0509 </r>
       <r>    8.3309    0.0000 </r>
       <r>    8.3988    0.0000 </r>
       <r>    8.6747    0.0000 </r>
       <r>    8.7382    0.0000 </r>
      </set>
      <set comment="kpoint 20">
       <r>  -25.8764    1.0000 </r>
       <r>  -25.7564    1.0000 </r>
       <r>  -25.7564    1.0000 </r>
       <r>  -25.4819    1.0000 </r>
       <r>  -25.4819    1.0000 </r>
       <r>  -25.3554    1.0000 </r>
       <r>    3.0070    1.0000 </r>
       <r>    3.4257    1.0000 </r>
       <r>    3.4257    1.0000 </r>
       <r>    3.9851    1.0000 </r>
       <r>    3.9851    1.0000 </r>
       <r>    4.0132    1.0000 </r>
       <r>    8.7002    0.0000 </r>
       <r>    8.7002    0.0000 </r>
       <r>    8.7062    0.0000 </r>
       <r>    8.7062    0.0000 </r>
      </set>
     </set>
    </set>
   </array>
  </eigenvalues>
  <separator name="orbital magnetization" >
   <v name="MAGDIPOLOUT">      0.00000000      0.00000000      0.00000000</v>
  </separator>
  <dos>
   <i name="efermi">      4.75333544 </i>
   <total>
    <array>
     <dimension dim="1">gridpoints</dimension>
     <dimension dim="2">spin</dimension>
     <field>energy</field>
     <field>total</field>
     <field>integrated</field>
     <set>
      <set comment="spin 1">
       <r>   -25.6292    10.4714     2.2678 </r>
       <r>   -25.4127     4.9246     3.3344 </r>
       <r>   -25.1961     5.2900     4.4800 </r>
       <r>   -24.9795     6.9385     5.9827 </r>
       <r>   -24.7629     0.0767     5.9993 </r>
       <r>   -24.5464     0.0031     6.0000 </r>
       <r>   -24.3298     0.0000     6.0000 </r>
       <r>   -24.1132     0.0000     6.0000 </r>
       <r>   -23.8967     0.0000     6.0000 </r>
       <r>   -23.6801     0.0000     6.0000 </r>
       <r>   -23.4635     0.0000     6.0000 </r>
       <r>   -23.2469     0.0000     6.0000 </r>
       <r>   -23.0304     0.0000     6.0000 </r>
       <r>   -22.8138     0.0000     6.0000 </r>
       <r>   -22.5972     0.0000     6.0000 </r>
       <r>   -22.3806     0.0000     6.0000 </r>
       <r>   -22.1641     0.0000     6.0000 </r>
       <r>   -21.9475     0.0000     6.0000 </r>
       <r>   -21.7309     0.0000     6.0000 </r>
       <r>   -21.5143     0.0000     6.0000 </r>
       <r>   -21.2978     0.0000     6.0000 </r>
       <r>   -21.0812     0.0000     6.0000 </r>
       <r>   -20.8646     0.0000     6.0000 </r>
       <r>   -20.6480     0.0000     6.0000 </r>
       <r>   -20.4315     0.0000     6.0000 </r>
       <r>   -20.2149     0.0000     6.0000 </r>
       <r>   -19.9983     0.0000     6.0000 </r>
       <r>   -19.7817     0.0000     6.0000 </r>
       <r>   -19.5652     0.0000     6.0000 </r>
       <r>   -19.3486     0.0000     6.0000 </r>
       <r>   -19.1320     0.0000     6.0000 </r>
       <r>   -18.9155     0.0000     6.0000 </r>
       <r>   -18.6989     0.0000     6.0000 </r>
       <r>   -18.4823     0.0000     6.0000 </r>
       <r>   -18.2657     0.0000     6.0000 </r>
       <r>   -18.0492     0.0000     6.0000 </r>
       <r>   -17.8326     0.0000     6.0000 </r>
       <r>   -17.6160     0.0000     6.0000 </r>
       <r>   -17.3994     0.0000     6.0000 </r>
       <r>   -17.1829     0.0000     6.0000 </r>
       <r>   -16.9663     0.0000     6.0000 </r>
       <r>   -16.7497     0.0000     6.0000 </r>
       <r>   -16.5331     0.0000     6.0000 </r>
       <r>   -16.3166     0.0000     6.0000 </r>
       <r>   -16.1000     0.0000     6.0000 </r>
       <r>   -15.8834     0.0000     6.0000 </r>
       <r>   -15.6668     0.0000     6.0000 </r>
       <r>   -15.4503     0.0000     6.0000 </r>
       <r>   -15.2337     0.0000     6.0000 </r>
       <r>   -15.0171     0.0000     6.0000 </r>
       <r>   -14.8005     0.0000     6.0000 </r>
       <r>   -14.5840     0.0000     6.0000 </r>
       <r>   -14.3674     0.0000     6.0000 </r>
       <r>   -14.1508     0.0000     6.0000 </r>
       <r>   -13.9342     0.0000     6.0000 </r>
       <r>   -13.7177     0.0000     6.0000 </r>
       <r>   -13.5011     0.0000     6.0000 </r>
       <r>   -13.2845     0.0000     6.0000 </r>
       <r>   -13.0680     0.0000     6.0000 </r>
       <r>   -12.8514     0.0000     6.0000 </r>
       <r>   -12.6348     0.0000     6.0000 </r>
       <r>   -12.4182     0.0000     6.0000 </r>
       <r>   -12.2017     0.0000     6.0000 </r>
       <r>   -11.9851     0.0000     6.0000 </r>
       <r>   -11.7685     0.0000     6.0000 </r>
       <r>   -11.5519     0.0000     6.0000 </r>
       <r>   -11.3354     0.0000     6.0000 </r>
       <r>   -11.1188     0.0000     6.0000 </r>
       <r>   -10.9022     0.0000     6.0000 </r>
       <r>   -10.6856     0.0000     6.0000 </r>
       <r>   -10.4691     0.0000     6.0000 </r>
       <r>   -10.2525     0.0000     6.0000 </r>
       <r>   -10.0359     0.0000     6.0000 </r>
       <r>    -9.8193     0.0000     6.0000 </r>
       <r>    -9.6028     0.0000     6.0000 </r>
       <r>    -9.3862     0.0000     6.0000 </r>
       <r>    -9.1696     0.0000     6.0000 </r>
       <r>    -8.9530     0.0000     6.0000 </r>
       <r>    -8.7365     0.0000     6.0000 </r>
       <r>    -8.5199     0.0000     6.0000 </r>
       <r>    -8.3033     0.0000     6.0000 </r>
       <r>    -8.0868     0.0000     6.0000 </r>
       <r>    -7.8702     0.0000     6.0000 </r>
       <r>    -7.6536     0.0000     6.0000 </r>
       <r>    -7.4370     0.0000     6.0000 </r>
       <r>    -7.2205     0.0000     6.0000 </r>
       <r>    -7.0039     0.0000     6.0000 </r>
       <r>    -6.7873     0.0000     6.0000 </r>
       <r>    -6.5707     0.0000     6.0000 </r>
       <r>    -6.3542     0.0000     6.0000 </r>
       <r>    -6.1376     0.0000     6.0000 </r>
       <r>    -5.9210     0.0000     6.0000 </r>
       <r>    -5.7044     0.0000     6.0000 </r>
       <r>    -5.4879     0.0000     6.0000 </r>
       <r>    -5.2713     0.0000     6.0000 </r>
       <r>    -5.0547     0.0000     6.0000 </r>
       <r>    -4.8381     0.0000     6.0000 </r>
       <r>    -4.6216     0.0000     6.0000 </r>
       <r>    -4.4050     0.0000     6.0000 </r>
       <r>    -4.1884     0.0000     6.0000 </r>
       <r>    -3.9718     0.0000     6.0000 </r>
       <r>    -3.7553     0.0000     6.0000 </r>
       <r>    -3.5387     0.0000     6.0000 </r>
       <r>    -3.3221     0.0000     6.0000 </r>
       <r>    -3.1055     0.0000     6.0000 </r>
       <r>    -2.8890     0.0000     6.0000 </r>
       <r>    -2.6724     0.0000     6.0000 </r>
       <r>    -2.4558     0.0000     6.0000 </r>
       <r>    -2.2393     0.0000     6.0000 </r>
       <r>    -2.0227     0.0000     6.0000 </r>
       <r>    -1.8061     0.0000     6.0000 </r>
       <r>    -1.5895     0.0000     6.0000 </r>
       <r>    -1.3730     0.0000     6.0000 </r>
       <r>    -1.1564    -0.0002     6.0000 </r>
       <r>    -0.9398     0.0140     6.0030 </r>
       <r>    -0.7232     0.0087     6.0049 </r>
       <r>    -0.5067     0.0724     6.0205 </r>
       <r>    -0.2901     0.1162     6.0457 </r>
       <r>    -0.0735     0.0398     6.0543 </r>
       <r>     0.1431     0.1181     6.0799 </r>
       <r>     0.3596     0.0008     6.0801 </r>
       <r>     0.5762     0.0711     6.0955 </r>
       <r>     0.7928     0.3239     6.1657 </r>
       <r>     1.0094     0.3292     6.2369 </r>
       <r>     1.2259     0.2788     6.2973 </r>
       <r>     1.4425     0.3644     6.3762 </r>
       <r>     1.6591     1.0627     6.6064 </r>
       <r>     1.8757     1.8839     7.0144 </r>
       <r>     2.0922     0.7064     7.1674 </r>
       <r>     2.3088     1.1851     7.4240 </r>
       <r>     2.5254     1.2213     7.6885 </r>
       <r>     2.7419     2.1929     8.1635 </r>
       <r>     2.9585     0.0162     8.1670 </r>
       <r>     3.1751     0.4280     8.2597 </r>
       <r>     3.3917     1.6918     8.6261 </r>
       <r>     3.6082     2.5173     9.1712 </r>
       <r>     3.8248     1.7963     9.5603 </r>
       <r>     4.0414     0.6672     9.7048 </r>
       <r>     4.2580     1.3941    10.0067 </r>
       <r>     4.4745     1.3336    10.2955 </r>
       <r>     4.6911     2.5524    10.8483 </r>
       <r>     4.9077     1.7740    11.2325 </r>
       <r>     5.1243     0.9032    11.4281 </r>
       <r>     5.3408     0.8015    11.6017 </r>
       <r>     5.5574     0.2046    11.6460 </r>
       <r>     5.7740     0.3202    11.7154 </r>
       <r>     5.9906     0.5508    11.8347 </r>
       <r>     6.2071     0.3407    11.9084 </r>
       <r>     6.4237     1.1236    12.1518 </r>
       <r>     6.6403     0.6505    12.2927 </r>
       <r>     6.8569     1.2037    12.5534 </r>
       <r>     7.0734     0.6251    12.6888 </r>
       <r>     7.2900     0.4401    12.7841 </r>
       <r>     7.5066     1.4000    13.0873 </r>
       <r>     7.7232     1.6837    13.4519 </r>
       <r>     7.9397     1.5629    13.7904 </r>
       <r>     8.1563     1.6376    14.1451 </r>
       <r>     8.3729     1.2528    14.4164 </r>
       <r>     8.5894     1.4572    14.7320 </r>
       <r>     8.8060     3.0094    15.3837 </r>
       <r>     9.0226     1.2089    15.6455 </r>
       <r>     9.2392     1.0817    15.8798 </r>
       <r>     9.4557     0.3620    15.9582 </r>
       <r>     9.6723     0.1744    15.9960 </r>
       <r>     9.8889    -0.0083    15.9942 </r>
       <r>    10.1055    -0.0010    15.9939 </r>
       <r>    10.3220     0.0294    16.0003 </r>
       <r>    10.5386    -0.0014    16.0000 </r>
       <r>    10.7552     0.0000    16.0000 </r>
       <r>    10.9718     0.0000    16.0000 </r>
       <r>    11.1883     0.0000    16.0000 </r>
       <r>    11.4049     0.0000    16.0000 </r>
       <r>    11.6215     0.0000    16.0000 </r>
       <r>    11.8381     0.0000    16.0000 </r>
       <r>    12.0546     0.0000    16.0000 </r>
       <r>    12.2712     0.0000    16.0000 </r>
       <r>    12.4878     0.0000    16.0000 </r>
       <r>    12.7044     0.0000    16.0000 </r>
       <r>    12.9209     0.0000    16.0000 </r>
       <r>    13.1375     0.0000    16.0000 </r>
       <r>    13.3541     0.0000    16.0000 </r>
       <r>    13.5706     0.0000    16.0000 </r>
       <r>    13.7872     0.0000    16.0000 </r>
       <r>    14.0038     0.0000    16.0000 </r>
       <r>    14.2204     0.0000    16.0000 </r>
       <r>    14.4369     0.0000    16.0000 </r>
       <r>    14.6535     0.0000    16.0000 </r>
       <r>    14.8701     0.0000    16.0000 </r>
       <r>    15.0867     0.0000    16.0000 </r>
       <r>    15.3032     0.0000    16.0000 </r>
       <r>    15.5198     0.0000    16.0000 </r>
       <r>    15.7364     0.0000    16.0000 </r>
       <r>    15.9530     0.0000    16.0000 </r>
       <r>    16.1695     0.0000    16.0000 </r>
       <r>    16.3861     0.0000    16.0000 </r>
       <r>    16.6027     0.0000    16.0000 </r>
       <r>    16.8193     0.0000    16.0000 </r>
       <r>    17.0358     0.0000    16.0000 </r>
       <r>    17.2524     0.0000    16.0000 </r>
       <r>    17.4690     0.0000    16.0000 </r>
       <r>    17.6856     0.0000    16.0000 </r>
       <r>    17.9021     0.0000    16.0000 </r>
       <r>    18.1187     0.0000    16.0000 </r>
       <r>    18.3353     0.0000    16.0000 </r>
       <r>    18.5519     0.0000    16.0000 </r>
       <r>    18.7684     0.0000    16.0000 </r>
       <r>    18.9850     0.0000    16.0000 </r>
       <r>    19.2016     0.0000    16.0000 </r>
       <r>    19.4181     0.0000    16.0000 </r>
       <r>    19.6347     0.0000    16.0000 </r>
       <r>    19.8513     0.0000    16.0000 </r>
       <r>    20.0679     0.0000    16.0000 </r>
       <r>    20.2844     0.0000    16.0000 </r>
       <r>    20.5010     0.0000    16.0000 </r>
       <r>    20.7176     0.0000    16.0000 </r>
       <r>    20.9342     0.0000    16.0000 </r>
       <r>    21.1507     0.0000    16.0000 </r>
       <r>    21.3673     0.0000    16.0000 </r>
       <r>    21.5839     0.0000    16.0000 </r>
       <r>    21.8005     0.0000    16.0000 </r>
       <r>    22.0170     0.0000    16.0000 </r>
       <r>    22.2336     0.0000    16.0000 </r>
       <r>    22.4502     0.0000    16.0000 </r>
       <r>    22.6668     0.0000    16.0000 </r>
       <r>    22.8833     0.0000    16.0000 </r>
       <r>    23.0999     0.0000    16.0000 </r>
       <r>    23.3165     0.0000    16.0000 </r>
       <r>    23.5331     0.0000    16.0000 </r>
       <r>    23.7496     0.0000    16.0000 </r>
       <r>    23.9662     0.0000    16.0000 </r>
       <r>    24.1828     0.0000    16.0000 </r>
       <r>    24.3993     0.0000    16.0000 </r>
       <r>    24.6159     0.0000    16.0000 </r>
       <r>    24.8325     0.0000    16.0000 </r>
       <r>    25.0491     0.0000    16.0000 </r>
       <r>    25.2656     0.0000    16.0000 </r>
       <r>    25.4822     0.0000    16.0000 </r>
       <r>    25.6988     0.0000    16.0000 </r>
       <r>    25.9154     0.0000    16.0000 </r>
       <r>    26.1319     0.0000    16.0000 </r>
       <r>    26.3485     0.0000    16.0000 </r>
       <r>    26.5651     0.0000    16.0000 </r>
       <r>    26.7817     0.0000    16.0000 </r>
       <r>    26.9982     0.0000    16.0000 </r>
       <r>    27.2148     0.0000    16.0000 </r>
       <r>    27.4314     0.0000    16.0000 </r>
       <r>    27.6480     0.0000    16.0000 </r>
       <r>    27.8645     0.0000    16.0000 </r>
       <r>    28.0811     0.0000    16.0000 </r>
       <r>    28.2977     0.0000    16.0000 </r>
       <r>    28.5143     0.0000    16.0000 </r>
       <r>    28.7308     0.0000    16.0000 </r>
       <r>    28.9474     0.0000    16.0000 </r>
       <r>    29.1640     0.0000    16.0000 </r>
       <r>    29.3806     0.0000    16.0000 </r>
       <r>    29.5971     0.0000    16.0000 </r>
       <r>    29.8137     0.0000    16.0000 </r>
       <r>    30.0303     0.0000    16.0000 </r>
       <r>    30.2468     0.0000    16.0000 </r>
       <r>    30.4634     0.0000    16.0000 </r>
       <r>    30.6800     0.0000    16.0000 </r>
       <r>    30.8966     0.0000    16.0000 </r>
       <r>    31.1131     0.0000    16.0000 </r>
       <r>    31.3297     0.0000    16.0000 </r>
       <r>    31.5463     0.0000    16.0000 </r>
       <r>    31.7629     0.0000    16.0000 </r>
       <r>    31.9794     0.0000    16.0000 </r>
       <r>    32.1960     0.0000    16.0000 </r>
       <r>    32.4126     0.0000    16.0000 </r>
       <r>    32.6292     0.0000    16.0000 </r>
       <r>    32.8457     0.0000    16.0000 </r>
       <r>    33.0623     0.0000    16.0000 </r>
       <r>    33.2789     0.0000    16.0000 </r>
       <r>    33.4955     0.0000    16.0000 </r>
       <r>    33.7120     0.0000    16.0000 </r>
       <r>    33.9286     0.0000    16.0000 </r>
       <r>    34.1452     0.0000    16.0000 </r>
       <r>    34.3618     0.0000    16.0000 </r>
       <r>    34.5783     0.0000    16.0000 </r>
       <r>    34.7949     0.0000    16.0000 </r>
       <r>    35.0115     0.0000    16.0000 </r>
       <r>    35.2281     0.0000    16.0000 </r>
       <r>    35.4446     0.0000    16.0000 </r>
       <r>    35.6612     0.0000    16.0000 </r>
       <r>    35.8778     0.0000    16.0000 </r>
       <r>    36.0943     0.0000    16.0000 </r>
       <r>    36.3109     0.0000    16.0000 </r>
       <r>    36.5275     0.0000    16.0000 </r>
       <r>    36.7441     0.0000    16.0000 </r>
       <r>    36.9606     0.0000    16.0000 </r>
       <r>    37.1772     0.0000    16.0000 </r>
       <r>    37.3938     0.0000    16.0000 </r>
       <r>    37.6104     0.0000    16.0000 </r>
       <r>    37.8269     0.0000    16.0000 </r>
       <r>    38.0435     0.0000    16.0000 </r>
       <r>    38.2601     0.0000    16.0000 </r>
       <r>    38.4767     0.0000    16.0000 </r>
       <r>    38.6932     0.0000    16.0000 </r>
       <r>    38.9098     0.0000    16.0000 </r>
       <r>    39.1264     0.0000    16.0000 </r>
       <r>    39.3430     0.0000    16.0000 </r>
      </set>
      <set comment="spin 2">
       <r>   -25.6292    10.4713     2.2678 </r>
       <r>   -25.4127     4.9246     3.3344 </r>
       <r>   -25.1961     5.2900     4.4800 </r>
       <r>   -24.9795     6.9385     5.9827 </r>
       <r>   -24.7629     0.0767     5.9993 </r>
       <r>   -24.5464     0.0031     6.0000 </r>
       <r>   -24.3298     0.0000     6.0000 </r>
       <r>   -24.1132     0.0000     6.0000 </r>
       <r>   -23.8967     0.0000     6.0000 </r>
       <r>   -23.6801     0.0000     6.0000 </r>
       <r>   -23.4635     0.0000     6.0000 </r>
       <r>   -23.2469     0.0000     6.0000 </r>
       <r>   -23.0304     0.0000     6.0000 </r>
       <r>   -22.8138     0.0000     6.0000 </r>
       <r>   -22.5972     0.0000     6.0000 </r>
       <r>   -22.3806     0.0000     6.0000 </r>
       <r>   -22.1641     0.0000     6.0000 </r>
       <r>   -21.9475     0.0000     6.0000 </r>
       <r>   -21.7309     0.0000     6.0000 </r>
       <r>   -21.5143     0.0000     6.0000 </r>
       <r>   -21.2978     0.0000     6.0000 </r>
       <r>   -21.0812     0.0000     6.0000 </r>
       <r>   -20.8646     0.0000     6.0000 </r>
       <r>   -20.6480     0.0000     6.0000 </r>
       <r>   -20.4315     0.0000     6.0000 </r>
       <r>   -20.2149     0.0000     6.0000 </r>
       <r>   -19.9983     0.0000     6.0000 </r>
       <r>   -19.7817     0.0000     6.0000 </r>
       <r>   -19.5652     0.0000     6.0000 </r>
       <r>   -19.3486     0.0000     6.0000 </r>
       <r>   -19.1320     0.0000     6.0000 </r>
       <r>   -18.9155     0.0000     6.0000 </r>
       <r>   -18.6989     0.0000     6.0000 </r>
       <r>   -18.4823     0.0000     6.0000 </r>
       <r>   -18.2657     0.0000     6.0000 </r>
       <r>   -18.0492     0.0000     6.0000 </r>
       <r>   -17.8326     0.0000     6.0000 </r>
       <r>   -17.6160     0.0000     6.0000 </r>
       <r>   -17.3994     0.0000     6.0000 </r>
       <r>   -17.1829     0.0000     6.0000 </r>
       <r>   -16.9663     0.0000     6.0000 </r>
       <r>   -16.7497     0.0000     6.0000 </r>
       <r>   -16.5331     0.0000     6.0000 </r>
       <r>   -16.3166     0.0000     6.0000 </r>
       <r>   -16.1000     0.0000     6.0000 </r>
       <r>   -15.8834     0.0000     6.0000 </r>
       <r>   -15.6668     0.0000     6.0000 </r>
       <r>   -15.4503     0.0000     6.0000 </r>
       <r>   -15.2337     0.0000     6.0000 </r>
       <r>   -15.0171     0.0000     6.0000 </r>
       <r>   -14.8005     0.0000     6.0000 </r>
       <r>   -14.5840     0.0000     6.0000 </r>
       <r>   -14.3674     0.0000     6.0000 </r>
       <r>   -14.1508     0.0000     6.0000 </r>
       <r>   -13.9342     0.0000     6.0000 </r>
       <r>   -13.7177     0.0000     6.0000 </r>
       <r>   -13.5011     0.0000     6.0000 </r>
       <r>   -13.2845     0.0000     6.0000 </r>
       <r>   -13.0680     0.0000     6.0000 </r>
       <r>   -12.8514     0.0000     6.0000 </r>
       <r>   -12.6348     0.0000     6.0000 </r>
       <r>   -12.4182     0.0000     6.0000 </r>
       <r>   -12.2017     0.0000     6.0000 </r>
       <r>   -11.9851     0.0000     6.0000 </r>
       <r>   -11.7685     0.0000     6.0000 </r>
       <r>   -11.5519     0.0000     6.0000 </r>
       <r>   -11.3354     0.0000     6.0000 </r>
       <r>   -11.1188     0.0000     6.0000 </r>
       <r>   -10.9022     0.0000     6.0000 </r>
       <r>   -10.6856     0.0000     6.0000 </r>
       <r>   -10.4691     0.0000     6.0000 </r>
       <r>   -10.2525     0.0000     6.0000 </r>
       <r>   -10.0359     0.0000     6.0000 </r>
       <r>    -9.8193     0.0000     6.0000 </r>
       <r>    -9.6028     0.0000     6.0000 </r>
       <r>    -9.3862     0.0000     6.0000 </r>
       <r>    -9.1696     0.0000     6.0000 </r>
       <r>    -8.9530     0.0000     6.0000 </r>
       <r>    -8.7365     0.0000     6.0000 </r>
       <r>    -8.5199     0.0000     6.0000 </r>
       <r>    -8.3033     0.0000     6.0000 </r>
       <r>    -8.0868     0.0000     6.0000 </r>
       <r>    -7.8702     0.0000     6.0000 </r>
       <r>    -7.6536     0.0000     6.0000 </r>
       <r>    -7.4370     0.0000     6.0000 </r>
       <r>    -7.2205     0.0000     6.0000 </r>
       <r>    -7.0039     0.0000     6.0000 </r>
       <r>    -6.7873     0.0000     6.0000 </r>
       <r>    -6.5707     0.0000     6.0000 </r>
       <r>    -6.3542     0.0000     6.0000 </r>
       <r>    -6.1376     0.0000     6.0000 </r>
       <r>    -5.9210     0.0000     6.0000 </r>
       <r>    -5.7044     0.0000     6.0000 </r>
       <r>    -5.4879     0.0000     6.0000 </r>
       <r>    -5.2713     0.0000     6.0000 </r>
       <r>    -5.0547     0.0000     6.0000 </r>
       <r>    -4.8381     0.0000     6.0000 </r>
       <r>    -4.6216     0.0000     6.0000 </r>
       <r>    -4.4050     0.0000     6.0000 </r>
       <r>    -4.1884     0.0000     6.0000 </r>
       <r>    -3.9718     0.0000     6.0000 </r>
       <r>    -3.7553     0.0000     6.0000 </r>
       <r>    -3.5387     0.0000     6.0000 </r>
       <r>    -3.3221     0.0000     6.0000 </r>
       <r>    -3.1055     0.0000     6.0000 </r>
       <r>    -2.8890     0.0000     6.0000 </r>
       <r>    -2.6724     0.0000     6.0000 </r>
       <r>    -2.4558     0.0000     6.0000 </r>
       <r>    -2.2393     0.0000     6.0000 </r>
       <r>    -2.0227     0.0000     6.0000 </r>
       <r>    -1.8061     0.0000     6.0000 </r>
       <r>    -1.5895     0.0000     6.0000 </r>
       <r>    -1.3730     0.0000     6.0000 </r>
       <r>    -1.1564    -0.0002     6.0000 </r>
       <r>    -0.9398     0.0140     6.0030 </r>
       <r>    -0.7232     0.0087     6.0049 </r>
       <r>    -0.5067     0.0724     6.0205 </r>
       <r>    -0.2901     0.1162     6.0457 </r>
       <r>    -0.0735     0.0398     6.0543 </r>
       <r>     0.1431     0.1181     6.0799 </r>
       <r>     0.3596     0.0008     6.0801 </r>
       <r>     0.5762     0.0711     6.0955 </r>
       <r>     0.7928     0.3239     6.1657 </r>
       <r>     1.0094     0.3292     6.2369 </r>
       <r>     1.2259     0.2788     6.2973 </r>
       <r>     1.4425     0.3644     6.3762 </r>
       <r>     1.6591     1.0627     6.6064 </r>
       <r>     1.8757     1.8839     7.0144 </r>
       <r>     2.0922     0.7064     7.1674 </r>
       <r>     2.3088     1.1851     7.4240 </r>
       <r>     2.5254     1.2213     7.6885 </r>
       <r>     2.7419     2.1929     8.1635 </r>
       <r>     2.9585     0.0162     8.1670 </r>
       <r>     3.1751     0.4280     8.2597 </r>
       <r>     3.3917     1.6918     8.6261 </r>
       <r>     3.6082     2.5173     9.1712 </r>
       <r>     3.8248     1.7963     9.5603 </r>
       <r>     4.0414     0.6672     9.7048 </r>
       <r>     4.2580     1.3941    10.0067 </r>
       <r>     4.4745     1.3336    10.2955 </r>
       <r>     4.6911     2.5524    10.8483 </r>
       <r>     4.9077     1.7740    11.2325 </r>
       <r>     5.1243     0.9033    11.4281 </r>
       <r>     5.3408     0.8014    11.6017 </r>
       <r>     5.5574     0.2046    11.6460 </r>
       <r>     5.7740     0.3202    11.7154 </r>
       <r>     5.9906     0.5508    11.8347 </r>
       <r>     6.2071     0.3407    11.9084 </r>
       <r>     6.4237     1.1236    12.1518 </r>
       <r>     6.6403     0.6505    12.2927 </r>
       <r>     6.8569     1.2037    12.5534 </r>
       <r>     7.0734     0.6251    12.6888 </r>
       <r>     7.2900     0.4402    12.7841 </r>
       <r>     7.5066     1.4000    13.0873 </r>
       <r>     7.7232     1.6837    13.4519 </r>
       <r>     7.9397     1.5629    13.7904 </r>
       <r>     8.1563     1.6376    14.1451 </r>
       <r>     8.3729     1.2528    14.4164 </r>
       <r>     8.5894     1.4571    14.7320 </r>
       <r>     8.8060     3.0088    15.3836 </r>
       <r>     9.0226     1.2114    15.6459 </r>
       <r>     9.2392     1.0798    15.8798 </r>
       <r>     9.4557     0.3620    15.9582 </r>
       <r>     9.6723     0.1744    15.9960 </r>
       <r>     9.8889    -0.0083    15.9942 </r>
       <r>    10.1055    -0.0010    15.9939 </r>
       <r>    10.3220     0.0294    16.0003 </r>
       <r>    10.5386    -0.0014    16.0000 </r>
       <r>    10.7552     0.0000    16.0000 </r>
       <r>    10.9718     0.0000    16.0000 </r>
       <r>    11.1883     0.0000    16.0000 </r>
       <r>    11.4049     0.0000    16.0000 </r>
       <r>    11.6215     0.0000    16.0000 </r>
       <r>    11.8381     0.0000    16.0000 </r>
       <r>    12.0546     0.0000    16.0000 </r>
       <r>    12.2712     0.0000    16.0000 </r>
       <r>    12.4878     0.0000    16.0000 </r>
       <r>    12.7044     0.0000    16.0000 </r>
       <r>    12.9209     0.0000    16.0000 </r>
       <r>    13.1375     0.0000    16.0000 </r>
       <r>    13.3541     0.0000    16.0000 </r>
       <r>    13.5706     0.0000    16.0000 </r>
       <r>    13.7872     0.0000    16.0000 </r>
       <r>    14.0038     0.0000    16.0000 </r>
       <r>    14.2204     0.0000    16.0000 </r>
       <r>    14.4369     0.0000    16.0000 </r>
       <r>    14.6535     0.0000    16.0000 </r>
       <r>    14.8701     0.0000    16.0000 </r>
       <r>    15.0867     0.0000    16.0000 </r>
       <r>    15.3032     0.0000    16.0000 </r>
       <r>    15.5198     0.0000    16.0000 </r>
       <r>    15.7364     0.0000    16.0000 </r>
       <r>    15.9530     0.0000    16.0000 </r>
       <r>    16.1695     0.0000    16.0000 </r>
       <r>    16.3861     0.0000    16.0000 </r>
       <r>    16.6027     0.0000    16.0000 </r>
       <r>    16.8193     0.0000    16.0000 </r>
       <r>    17.0358     0.0000    16.0000 </r>
       <r>    17.2524     0.0000    16.0000 </r>
       <r>    17.4690     0.0000    16.0000 </r>
       <r>    17.6856     0.0000    16.0000 </r>
       <r>    17.9021     0.0000    16.0000 </r>
       <r>    18.1187     0.0000    16.0000 </r>
       <r>    18.3353     0.0000    16.0000 </r>
       <r>    18.5519     0.0000    16.0000 </r>
       <r>    18.7684     0.0000    16.0000 </r>
       <r>    18.9850     0.0000    16.0000 </r>
       <r>    19.2016     0.0000    16.0000 </r>
       <r>    19.4181     0.0000    16.0000 </r>
       <r>    19.6347     0.0000    16.0000 </r>
       <r>    19.8513     0.0000    16.0000 </r>
       <r>    20.0679     0.0000    16.0000 </r>
       <r>    20.2844     0.0000    16.0000 </r>
       <r>    20.5010     0.0000    16.0000 </r>
       <r>    20.7176     0.0000    16.0000 </r>
       <r>    20.9342     0.0000    16.0000 </r>
       <r>    21.1507     0.0000    16.0000 </r>
       <r>    21.3673     0.0000    16.0000 </r>
       <r>    21.5839     0.0000    16.0000 </r>
       <r>    21.8005     0.0000    16.0000 </r>
       <r>    22.0170     0.0000    16.0000 </r>
       <r>    22.2336     0.0000    16.0000 </r>
       <r>    22.4502     0.0000    16.0000 </r>
       <r>    22.6668     0.0000    16.0000 </r>
       <r>    22.8833     0.0000    16.0000 </r>
       <r>    23.0999     0.0000    16.0000 </r>
       <r>    23.3165     0.0000    16.0000 </r>
       <r>    23.5331     0.0000    16.0000 </r>
       <r>    23.7496     0.0000    16.0000 </r>
       <r>    23.9662     0.0000    16.0000 </r>
       <r>    24.1828     0.0000    16.0000 </r>
       <r>    24.3993     0.0000    16.0000 </r>
       <r>    24.6159     0.0000    16.0000 </r>
       <r>    24.8325     0.0000    16.0000 </r>
       <r>    25.0491     0.0000    16.0000 </r>
       <r>    25.2656     0.0000    16.0000 </r>
       <r>    25.4822     0.0000    16.0000 </r>
       <r>    25.6988     0.0000    16.0000 </r>
       <r>    25.9154     0.0000    16.0000 </r>
       <r>    26.1319     0.0000    16.0000 </r>
       <r>    26.3485     0.0000    16.0000 </r>
       <r>    26.5651     0.0000    16.0000 </r>
       <r>    26.7817     0.0000    16.0000 </r>
       <r>    26.9982     0.0000    16.0000 </r>
       <r>    27.2148     0.0000    16.0000 </r>
       <r>    27.4314     0.0000    16.0000 </r>
       <r>    27.6480     0.0000    16.0000 </r>
       <r>    27.8645     0.0000    16.0000 </r>
       <r>    28.0811     0.0000    16.0000 </r>
       <r>    28.2977     0.0000    16.0000 </r>
       <r>    28.5143     0.0000    16.0000 </r>
       <r>    28.7308     0.0000    16.0000 </r>
       <r>    28.9474     0.0000    16.0000 </r>
       <r>    29.1640     0.0000    16.0000 </r>
       <r>    29.3806     0.0000    16.0000 </r>
       <r>    29.5971     0.0000    16.0000 </r>
       <r>    29.8137     0.0000    16.0000 </r>
       <r>    30.0303     0.0000    16.0000 </r>
       <r>    30.2468     0.0000    16.0000 </r>
       <r>    30.4634     0.0000    16.0000 </r>
       <r>    30.6800     0.0000    16.0000 </r>
       <r>    30.8966     0.0000    16.0000 </r>
       <r>    31.1131     0.0000    16.0000 </r>
       <r>    31.3297     0.0000    16.0000 </r>
       <r>    31.5463     0.0000    16.0000 </r>
       <r>    31.7629     0.0000    16.0000 </r>
       <r>    31.9794     0.0000    16.0000 </r>
       <r>    32.1960     0.0000    16.0000 </r>
       <r>    32.4126     0.0000    16.0000 </r>
       <r>    32.6292     0.0000    16.0000 </r>
       <r>    32.8457     0.0000    16.0000 </r>
       <r>    33.0623     0.0000    16.0000 </r>
       <r>    33.2789     0.0000    16.0000 </r>
       <r>    33.4955     0.0000    16.0000 </r>
       <r>    33.7120     0.0000    16.0000 </r>
       <r>    33.9286     0.0000    16.0000 </r>
       <r>    34.1452     0.0000    16.0000 </r>
       <r>    34.3618     0.0000    16.0000 </r>
       <r>    34.5783     0.0000    16.0000 </r>
       <r>    34.7949     0.0000    16.0000 </r>
       <r>    35.0115     0.0000    16.0000 </r>
       <r>    35.2281     0.0000    16.0000 </r>
       <r>    35.4446     0.0000    16.0000 </r>
       <r>    35.6612     0.0000    16.0000 </r>
       <r>    35.8778     0.0000    16.0000 </r>
       <r>    36.0943     0.0000    16.0000 </r>
       <r>    36.3109     0.0000    16.0000 </r>
       <r>    36.5275     0.0000    16.0000 </r>
       <r>    36.7441     0.0000    16.0000 </r>
       <r>    36.9606     0.0000    16.0000 </r>
       <r>    37.1772     0.0000    16.0000 </r>
       <r>    37.3938     0.0000    16.0000 </r>
       <r>    37.6104     0.0000    16.0000 </r>
       <r>    37.8269     0.0000    16.0000 </r>
       <r>    38.0435     0.0000    16.0000 </r>
       <r>    38.2601     0.0000    16.0000 </r>
       <r>    38.4767     0.0000    16.0000 </r>
       <r>    38.6932     0.0000    16.0000 </r>
       <r>    38.9098     0.0000    16.0000 </r>
       <r>    39.1264     0.0000    16.0000 </r>
       <r>    39.3430     0.0000    16.0000 </r>
      </set>
     </set>
    </array>
   </total>
  </dos>
 </calculation>
 <structure name="finalpos" >
  <crystal>
   <varray name="basis" >
    <v>       3.32676588       0.00000000       0.00000000 </v>
    <v>       0.00000000       3.32676588       0.00000000 </v>
    <v>      -0.00000000      -0.00000000       3.32676588 </v>
   </varray>
   <i name="volume">     36.81855283 </i>
   <varray name="rec_basis" >
    <v>       0.30059224      -0.00000000       0.00000000 </v>
    <v>      -0.00000000       0.30059224       0.00000000 </v>
    <v>      -0.00000000      -0.00000000       0.30059224 </v>
   </varray>
  </crystal>
  <varray name="positions" >
   <v>      -0.00000000      -0.00000000      -0.00000000 </v>
   <v>       0.50000000       0.50000000       0.50000000 </v>
  </varray>
  <varray name="selective"  type="logical" >
   <v type="logical" >  T  T  T </v>
   <v type="logical" >  T  T  T </v>
  </varray>
  <nose>
   <v>      -3.00000000       0.00000000       0.00010000       0.00010000 </v>
  </nose>
 </structure>
</modeling>
