Crystal                                 
           1
     3.320520    0.000000    0.000000
     0.000000    3.320520    0.000000
     0.000000    0.000000    3.320520
   Nb
   2
Crystal                                 
           1
     3.338520    0.000000    0.000000
     0.000000    3.338520    0.000000
    -0.000000   -0.000000    3.338520
   Nb
   2
Direct configuration=     1
   0.00000000  0.00000000  0.00000000
   0.50000000  0.50000000  0.50000000
Crystal                                 
           1
     3.326766    0.000000    0.000000
     0.000000    3.326766    0.000000
    -0.000000   -0.000000    3.326766
   Nb
   2
Direct configuration=     2
  -0.00000000 -0.00000000 -0.00000000
   0.50000000  0.50000000  0.50000000
Crystal                                 
           1
     3.326766    0.000000    0.000000
     0.000000    3.326766    0.000000
    -0.000000   -0.000000    3.326766
   Nb
   2
Direct configuration=     3
  -0.00000000 -0.00000000 -0.00000000
   0.50000000  0.50000000  0.50000000
