    2    2  300    1
  0.5461575E+03  0.1010000E-08  0.1030000E-08  0.1050000E-08  0.5000000E-15
  1.000000000000000E-004
  CAR 
 Hello World                             
   12    1   10
 
  0.0000000E+00  0.0000000E+00  0.0000000E+00  0.1000000E+01
   1      -31.969809
   2      -19.872932
   3      -13.006908
   4      -12.440754
   5      -12.439951
   6       -5.959633
   7       -5.959094
   8       -0.301460
   9        0.817082
  10        1.065347
