 running on    1 total cores
 distrk:  each k-point on    1 cores,    1 groups
 distr:  one band on    1 cores,    1 groups
 using from now: INCAR     
 vasp.5.3.3 18Dez12 (build Sep  7 2015 22:32:56) complex                        
  
 POSCAR found :  1 types and       2 ions
 LDA part: xc-table for Pade appr. of Perdew
 POSCAR, INCAR and KPOINTS ok, starting setup
 WARNING: small aliasing (wrap around) errors must be expected
 FFT: planning ...
 WAVECAR not read
 entering main loop
       N       E                     dE             d eps       ncg     rms          rms(c)
DAV:   1     0.659491211715E+02    0.65949E+02   -0.25227E+03    28   0.493E+02
DAV:   2     0.102493226158E+02   -0.55700E+02   -0.55639E+02    30   0.147E+02
DAV:   3    -0.791679593779E+01   -0.18166E+02   -0.17700E+02    38   0.485E+01
DAV:   4    -0.904197286374E+01   -0.11252E+01   -0.93353E+00    32   0.111E+01
DAV:   5    -0.907746068598E+01   -0.35488E-01   -0.33894E-01    24   0.166E+00    0.433E+00
RMM:   6    -0.886699777980E+01    0.21046E+00   -0.24523E-01    20   0.409E+00    0.230E+00
RMM:   7    -0.883046380479E+01    0.36534E-01   -0.23394E-01    20   0.390E+00    0.393E-01
RMM:   8    -0.883056030892E+01   -0.96504E-04   -0.58276E-03    21   0.660E-01    0.775E-02
RMM:   9    -0.883059639155E+01   -0.36083E-04   -0.30279E-04    16   0.141E-01
   1 F= -.88305964E+01 E0= -.87177595E+01  d E =-.883060E+01
 BRION: g(F)=  0.127E+01 g(S)=  0.000E+00
 bond charge predicted
       N       E                     dE             d eps       ncg     rms          rms(c)
DAV:   1    -0.248114774249E+01    0.63494E+01   -0.40116E+02    20   0.208E+02    0.497E+00
RMM:   2    -0.294805417789E+01   -0.46691E+00   -0.88738E+00    20   0.309E+01    0.367E+00
RMM:   3    -0.268359741936E+01    0.26446E+00   -0.68892E-01    20   0.769E+00    0.140E+00
RMM:   4    -0.267490132850E+01    0.86961E-02   -0.19062E-01    22   0.314E+00    0.497E-01
RMM:   5    -0.267782992954E+01   -0.29286E-02   -0.19858E-02    20   0.106E+00    0.273E-01
RMM:   6    -0.267717404193E+01    0.65589E-03   -0.41135E-03    22   0.532E-01    0.828E-02
RMM:   7    -0.267811868474E+01   -0.94464E-03   -0.27427E-03    22   0.333E-01    0.571E-02
RMM:   8    -0.267953533701E+01   -0.14167E-02   -0.90232E-04    19   0.185E-01    0.220E-02
RMM:   9    -0.267995937887E+01   -0.42404E-03   -0.52693E-04    19   0.153E-01    0.331E-02
RMM:  10    -0.268034935294E+01   -0.38997E-03   -0.60525E-04    20   0.163E-01    0.209E-02
RMM:  11    -0.268040512280E+01   -0.55770E-04   -0.42680E-05    13   0.557E-02
   2 F= -.26804051E+01 E0= -.25675677E+01  d E =0.615019E+01
 BRION: g(F)=  0.378E+03 g(S)=  0.000E+00 retain N=  1 mean eig= 0.05
 eig:   0.055
 bond charge predicted
       N       E                     dE             d eps       ncg     rms          rms(c)
DAV:   1    -0.939411854141E+01   -0.67138E+01   -0.36683E+02    24   0.191E+02    0.632E+00
RMM:   2    -0.892487564599E+01    0.46924E+00   -0.44039E+00    20   0.202E+01    0.237E+00
RMM:   3    -0.888802275136E+01    0.36853E-01   -0.53496E-01    20   0.575E+00    0.916E-01
RMM:   4    -0.888912824937E+01   -0.11055E-02   -0.24119E-02    22   0.113E+00    0.239E-01
RMM:   5    -0.888912205502E+01    0.61944E-05   -0.12342E-03    20   0.289E-01    0.781E-02
RMM:   6    -0.888977581260E+01   -0.65376E-03   -0.22624E-04    15   0.123E-01    0.326E-02
RMM:   7    -0.889056577718E+01   -0.78996E-03   -0.19698E-04    13   0.119E-01    0.160E-02
RMM:   8    -0.889115188606E+01   -0.58611E-03   -0.21758E-04    15   0.964E-02    0.184E-02
RMM:   9    -0.889129346499E+01   -0.14158E-03   -0.40422E-05    13   0.474E-02    0.567E-03
RMM:  10    -0.889161696900E+01   -0.32350E-03   -0.68143E-05    13   0.603E-02    0.123E-02
RMM:  11    -0.889166290864E+01   -0.45940E-04   -0.22512E-05    13   0.352E-02
   3 F= -.88916629E+01 E0= -.87788252E+01  d E =-.621126E+01
 BRION: g(F)=  0.709E+00 g(S)=  0.000E+00 retain N=  1 mean eig= 0.05
 eig:   0.053
 bond charge predicted
       N       E                     dE             d eps       ncg     rms          rms(c)
DAV:   1    -0.892389263494E+01   -0.32276E-01   -0.57231E-01    20   0.742E+00    0.178E-01
RMM:   2    -0.892383598172E+01    0.56653E-04   -0.66050E-03    20   0.804E-01    0.935E-02
RMM:   3    -0.892393465308E+01   -0.98671E-04   -0.86963E-04    20   0.258E-01
   4 F= -.89239347E+01 E0= -.88110970E+01  d E =-.322717E-01
 BRION: g(F)=  0.374E+00 g(S)=  0.000E+00 retain N=  1 mean eig= 0.19
 eig:   0.192
 bond charge predicted
       N       E                     dE             d eps       ncg     rms          rms(c)
DAV:   1    -0.895427787415E+01   -0.30442E-01   -0.41040E+00    24   0.200E+01    0.483E-01
RMM:   2    -0.895527748869E+01   -0.99961E-03   -0.51979E-02    20   0.222E+00    0.274E-01
RMM:   3    -0.895472719565E+01    0.55029E-03   -0.69171E-03    20   0.731E-01    0.708E-02
RMM:   4    -0.895485299608E+01   -0.12580E-03   -0.12564E-04    13   0.978E-02    0.437E-02
RMM:   5    -0.895504248950E+01   -0.18949E-03   -0.66404E-05    13   0.772E-02    0.153E-02
RMM:   6    -0.895504792737E+01   -0.54379E-05   -0.90357E-06    13   0.262E-02
   5 F= -.89550479E+01 E0= -.88422103E+01  d E =-.311133E-01
 BRION: g(F)=  0.135E-01 g(S)=  0.000E+00 retain N=  1 mean eig= 0.16
 eig:   0.162
 bond charge predicted
       N       E                     dE             d eps       ncg     rms          rms(c)
DAV:   1    -0.895609758274E+01   -0.10551E-02   -0.10590E-01    24   0.320E+00    0.888E-02
RMM:   2    -0.895600389818E+01    0.93685E-04   -0.11353E-03    18   0.350E-01    0.450E-02
RMM:   3    -0.895607653131E+01   -0.72633E-04   -0.26006E-04    17   0.141E-01
   6 F= -.89560765E+01 E0= -.88432388E+01  d E =-.102860E-02
 BRION: g(F)=  0.210E-03 g(S)=  0.000E+00 retain N=  1 mean eig= 0.14
 eig:   0.144
 bond charge predicted
       N       E                     dE             d eps       ncg     rms          rms(c)
DAV:   1    -0.895609782226E+01   -0.93924E-04   -0.12820E-03    24   0.353E-01    0.106E-02
RMM:   2    -0.895611295553E+01   -0.15133E-04   -0.13870E-05    11   0.407E-02
   7 F= -.89561130E+01 E0= -.88432752E+01  d E =-.364242E-04
 BRION: g(F)=  0.291E-06 g(S)=  0.000E+00 retain N=  1 mean eig= 0.14
 eig:   0.139
 reached required accuracy - stopping structural energy minimisation
