<?xml version="1.0" encoding="ISO-8859-1"?>
<modeling>
 <generator>
  <i name="program" type="string">vasp </i>
  <i name="version" type="string">5.3.3  </i>
  <i name="subversion" type="string">18Dez12 (build Sep  7 2015 22:32:56) complex                          parallel </i>
  <i name="platform" type="string">LinuxIFC </i>
  <i name="date" type="string">2022 12 22 </i>
  <i name="time" type="string">20:19:39 </i>
 </generator>
 <incar>
  <i type="string" name="SYSTEM"> Hello World</i>
  <i type="string" name="PREC">normal</i>
  <i type="string" name="ALGO"> fast    ! algorithm for electronic opti</i>
  <i type="int" name="IBRION">     1</i>
  <i name="EDIFF">      0.00010000</i>
  <i name="EDIFFG">     -0.01000000</i>
  <i type="int" name="NSW">   300</i>
  <i name="ENCUT">    400.00000000</i>
  <i type="int" name="ISMEAR">     0</i>
  <i type="logical" name="LWAVE"> F  </i>
  <i type="logical" name="LCHARG"> F  </i>
 </incar>
 <kpoints>
  <generation param="Gamma">
   <v type="int" name="divisions">       1        1        1 </v>
   <v name="usershift">      0.00000000       0.00000000       0.00000000 </v>
   <v name="genvec1">      1.00000000       0.00000000       0.00000000 </v>
   <v name="genvec2">      0.00000000       1.00000000       0.00000000 </v>
   <v name="genvec3">      0.00000000       0.00000000       1.00000000 </v>
   <v name="shift">      0.00000000       0.00000000       0.00000000 </v>
  </generation>
  <varray name="kpointlist" >
   <v>       0.00000000       0.00000000       0.00000000 </v>
  </varray>
  <varray name="weights" >
   <v>       1.00000000 </v>
  </varray>
 </kpoints>
 <parameters>
  <separator name="general" >
   <i type="string" name="SYSTEM">Hello World</i>
   <i type="logical" name="LCOMPAT"> F  </i>
  </separator>
  <separator name="electronic" >
   <i type="string" name="PREC">normal</i>
   <i name="ENMAX">    400.00000000</i>
   <i name="ENAUG">    605.39200000</i>
   <i name="EDIFF">      0.00010000</i>
   <i type="int" name="IALGO">    68</i>
   <i type="int" name="IWAVPR">    11</i>
   <i type="int" name="NBANDS">    10</i>
   <i name="NELECT">     12.00000000</i>
   <i type="int" name="TURBO">     0</i>
   <i type="int" name="IRESTART">     0</i>
   <i type="int" name="NREBOOT">     0</i>
   <i type="int" name="NMIN">     0</i>
   <i name="EREF">      0.00000000</i>
   <separator name="electronic smearing" >
    <i type="int" name="ISMEAR">     0</i>
    <i name="SIGMA">      0.20000000</i>
    <i name="KSPACING">      0.50000000</i>
    <i type="logical" name="KGAMMA"> T  </i>
   </separator>
   <separator name="electronic projectors" >
    <i type="logical" name="LREAL"> F  </i>
    <v name="ROPT">      0.00000000</v>
    <i type="int" name="LMAXPAW">  -100</i>
    <i type="int" name="LMAXMIX">     2</i>
    <i type="logical" name="NLSPLINE"> F  </i>
   </separator>
   <separator name="electronic startup" >
    <i type="int" name="ISTART">     0</i>
    <i type="int" name="ICHARG">     2</i>
    <i type="int" name="INIWAV">     1</i>
   </separator>
   <separator name="electronic spin" >
    <i type="int" name="ISPIN">     1</i>
    <i type="logical" name="LNONCOLLINEAR"> F  </i>
    <v name="MAGMOM">      1.00000000      1.00000000</v>
    <i name="NUPDOWN">     -1.00000000</i>
    <i type="logical" name="LSORBIT"> F  </i>
    <v name="SAXIS">      0.00000000      0.00000000      1.00000000</v>
    <i type="logical" name="LSPIRAL"> F  </i>
    <v name="QSPIRAL">      0.00000000      0.00000000      0.00000000</v>
    <i type="logical" name="LZEROZ"> F  </i>
   </separator>
   <separator name="electronic exchange-correlation" >
    <i type="logical" name="LASPH"> F  </i>
    <i type="logical" name="LMETAGGA"> F  </i>
   </separator>
   <separator name="electronic convergence" >
    <i type="int" name="NELM">    60</i>
    <i type="int" name="NELMDL">    -5</i>
    <i type="int" name="NELMIN">     2</i>
    <i name="ENINI">    400.00000000</i>
    <separator name="electronic convergence detail" >
     <i type="logical" name="LDIAG"> T  </i>
     <i type="logical" name="LSUBROT"> T  </i>
     <i name="WEIMIN">      0.00100000</i>
     <i name="EBREAK">      0.00000250</i>
     <i name="DEPER">      0.30000000</i>
     <i type="int" name="NRMM">     4</i>
     <i name="TIME">      0.40000000</i>
    </separator>
   </separator>
   <separator name="electronic mixer" >
    <i name="AMIX">      0.40000000</i>
    <i name="BMIX">      1.00000000</i>
    <i name="AMIN">      0.10000000</i>
    <i name="AMIX_MAG">      1.60000000</i>
    <i name="BMIX_MAG">      1.00000000</i>
    <separator name="electronic mixer details" >
     <i type="int" name="IMIX">     4</i>
     <i type="int" name="MAXMIX">   -45</i>
     <i name="WC">    100.00000000</i>
     <i type="int" name="INIMIX">     1</i>
     <i type="int" name="MIXPRE">     1</i>
     <i type="int" name="MREMOVE">     5</i>
    </separator>
   </separator>
   <separator name="electronic dipolcorrection" >
    <i type="logical" name="LDIPOL"> F  </i>
    <i type="logical" name="LMONO"> F  </i>
    <i type="int" name="IDIPOL">     0</i>
    <i name="EPSILON">      1.00000000</i>
    <v name="DIPOL">   -100.00000000   -100.00000000   -100.00000000</v>
    <i name="EFIELD">      0.00000000</i>
   </separator>
  </separator>
  <separator name="grids" >
   <i type="int" name="NGX">    50</i>
   <i type="int" name="NGY">    50</i>
   <i type="int" name="NGZ">    54</i>
   <i type="int" name="NGXF">   100</i>
   <i type="int" name="NGYF">   100</i>
   <i type="int" name="NGZF">   108</i>
   <i type="logical" name="ADDGRID"> F  </i>
  </separator>
  <separator name="ionic" >
   <i type="int" name="NSW">   300</i>
   <i type="int" name="IBRION">     1</i>
   <i type="int" name="ISIF">     2</i>
   <i name="PSTRESS">      0.00000000</i>
   <i name="EDIFFG">     -0.01000000</i>
   <i type="int" name="NFREE">     0</i>
   <i name="POTIM">      0.50000000</i>
   <i name="SMASS">     -3.00000000</i>
   <i name="SCALEE">      1.00000000</i>
  </separator>
  <separator name="ionic md" >
   <i name="TEBEG">      0.00010000</i>
   <i name="TEEND">      0.00010000</i>
   <i type="int" name="NBLOCK">     1</i>
   <i type="int" name="KBLOCK">   300</i>
   <i type="int" name="NPACO">   256</i>
   <i name="APACO">     16.00000000</i>
  </separator>
  <separator name="symmetry" >
   <i type="int" name="ISYM">     2</i>
   <i name="SYMPREC">      0.00001000</i>
  </separator>
  <separator name="dos" >
   <i type="logical" name="LORBIT"> F  </i>
   <v name="RWIGS">     -1.00000000</v>
   <i type="int" name="NEDOS">   301</i>
   <i name="EMIN">     10.00000000</i>
   <i name="EMAX">    -10.00000000</i>
   <i name="EFERMI">      0.00000000</i>
  </separator>
  <separator name="writing" >
   <i type="int" name="NWRITE">     2</i>
   <i type="logical" name="LWAVE"> F  </i>
   <i type="logical" name="LCHARG"> F  </i>
   <i type="logical" name="LPARD"> F  </i>
   <i type="logical" name="LVTOT"> F  </i>
   <i type="logical" name="LVHAR"> F  </i>
   <i type="logical" name="LELF"> F  </i>
   <i type="logical" name="LOPTICS"> F  </i>
   <v name="STM">      0.00000000      0.00000000      0.00000000      0.00000000      0.00000000      0.00000000      0.00000000</v>
  </separator>
  <separator name="performance" >
   <i type="int" name="NPAR">     1</i>
   <i type="int" name="NSIM">     4</i>
   <i type="int" name="NBLK">    -1</i>
   <i type="logical" name="LPLANE"> T  </i>
   <i type="logical" name="LSCALAPACK"> F  </i>
   <i type="logical" name="LSCAAWARE"> F  </i>
   <i type="logical" name="LSCALU"> F  </i>
   <i type="logical" name="LASYNC"> F  </i>
   <i type="logical" name="LORBITALREAL"> F  </i>
  </separator>
  <separator name="miscellaneous" >
   <i type="int" name="IDIOT">     3</i>
   <i type="logical" name="LMUSIC"> F  </i>
   <v name="POMASS">     16.00000000</v>
   <v name="DARWINR">      0.00000000</v>
   <v name="DARWINV">      1.00000000</v>
   <i type="logical" name="LCORR"> T  </i>
  </separator>
  <i type="logical" name="GGA_COMPAT"> T  </i>
  <i type="logical" name="LBERRY"> F  </i>
  <i type="int" name="ICORELEVEL">     0</i>
  <i type="logical" name="LDAU"> F  </i>
  <i type="int" name="I_CONSTRAINED_M">     0</i>
  <separator name="electronic exchange-correlation" >
   <i type="string" name="GGA">--</i>
   <i type="int" name="VOSKOWN">     0</i>
   <i type="logical" name="LHFCALC"> F  </i>
   <i type="string" name="PRECFOCK"></i>
   <i type="logical" name="LSYMGRAD"> F  </i>
   <i type="logical" name="LHFONE"> F  </i>
   <i type="logical" name="LRHFCALC"> F  </i>
   <i type="logical" name="LTHOMAS"> F  </i>
   <i type="logical" name="LMODELHF"> F  </i>
   <i name="ENCUT4O">     -1.00000000</i>
   <i type="int" name="EXXOEP">     0</i>
   <i type="int" name="FOURORBIT">     0</i>
   <i name="AEXX">      0.00000000</i>
   <i name="HFALPHA">      0.00000000</i>
   <i name="MCALPHA">      0.00000000</i>
   <i name="ALDAX">      1.00000000</i>
   <i name="AGGAX">      1.00000000</i>
   <i name="ALDAC">      1.00000000</i>
   <i name="AGGAC">      1.00000000</i>
   <i type="int" name="NKREDX">     1</i>
   <i type="int" name="NKREDY">     1</i>
   <i type="int" name="NKREDZ">     1</i>
   <i type="logical" name="SHIFTRED"> F  </i>
   <i type="logical" name="ODDONLY"> F  </i>
   <i type="logical" name="EVENONLY"> F  </i>
   <i type="int" name="LMAXFOCK">     0</i>
   <i type="int" name="NMAXFOCKAE">     0</i>
   <i type="logical" name="LFOCKAEDFT"> F  </i>
   <i name="HFSCREEN">      0.00000000</i>
   <i name="HFSCREENC">      0.00000000</i>
   <i type="int" name="NBANDSGWLOW">     0</i>
  </separator>
  <separator name="vdW DFT" >
   <i type="logical" name="LUSE_VDW"> F  </i>
   <i name="Zab_VDW">     -0.84910000</i>
   <i name="PARAM1">      0.12340000</i>
   <i name="PARAM2">      1.00000000</i>
   <i name="PARAM3">      0.00000000</i>
  </separator>
  <separator name="model GW" >
   <i type="int" name="MODEL_GW">     0</i>
   <i name="MODEL_EPS0">    327.69450000</i>
   <i name="MODEL_ALPHA">      1.00000000</i>
  </separator>
  <separator name="linear response parameters" >
   <i type="logical" name="LEPSILON"> F  </i>
   <i type="logical" name="LRPA"> F  </i>
   <i type="logical" name="LNABLA"> F  </i>
   <i type="logical" name="LVEL"> F  </i>
   <i type="int" name="KINTER">     0</i>
   <i name="CSHIFT">      0.10000000</i>
   <i name="OMEGAMAX">     -1.00000000</i>
   <i name="DEG_THRESHOLD">      0.00200000</i>
  </separator>
  <separator name="orbital magnetization" >
   <i type="logical" name="NUCIND"> F  </i>
   <v name="MAGPOS">      0.00000000      0.00000000      0.00000000</v>
   <i type="logical" name="LNICSALL"> T  </i>
   <i type="logical" name="ORBITALMAG"> F  </i>
   <i type="logical" name="LMAGBLOCH"> F  </i>
   <i type="logical" name="LCHIMAG"> F  </i>
   <i type="logical" name="LGAUGE"> T  </i>
   <i type="int" name="MAGATOM">     0</i>
   <v name="MAGDIPOL">      0.00000000      0.00000000      0.00000000</v>
   <v name="AVECCONST">      0.00000000      0.00000000      0.00000000</v>
  </separator>
  <separator name="response functions" >
   <i type="logical" name="LADDER"> F  </i>
   <i type="logical" name="LFXC"> F  </i>
   <i type="logical" name="LHARTREE"> T  </i>
   <i type="int" name="IBSE">     0</i>
   <i type="logical" name="LTCTE"> F  </i>
   <i type="logical" name="LTETE"> F  </i>
   <i type="logical" name="LTRIPLET"> F  </i>
   <i type="logical" name="LFXCEPS"> F  </i>
   <i type="logical" name="L2ORDER"> F  </i>
   <i type="logical" name="LUSEW"> F  </i>
   <i name="ENCUTGW">     -2.00000000</i>
   <i name="ENCUTGWSOFT">     -2.00000000</i>
   <i name="ENCUTLF">     -1.00000000</i>
   <i type="int" name="LMAXMP2">    -1</i>
   <i name="SCISSOR">      0.00000000</i>
   <i type="int" name="NOMEGA">     0</i>
   <i type="int" name="NOMEGAR">     0</i>
   <i type="int" name="NBANDSGW">    -1</i>
   <i type="int" name="NBANDSO">    -1</i>
   <i type="int" name="NBANDSV">    -1</i>
   <i type="int" name="NELM">     1</i>
   <i type="int" name="DIM">     3</i>
   <i type="int" name="ANTIRES">     0</i>
   <i name="OMEGAMAX">    -30.00000000</i>
   <i name="OMEGATL">   -200.00000000</i>
   <i type="int" name="OMEGAGRID">     0</i>
   <i name="CSHIFT">     -0.10000000</i>
   <i type="logical" name="SELFENERGY"> F  </i>
   <i type="logical" name="LSPECTRAL"> F  </i>
   <i type="logical" name="ODDONLYGW"> F  </i>
   <i type="logical" name="EVENONLYGW"> F  </i>
   <i type="int" name="NKREDLFX">     1</i>
   <i type="int" name="NKREDLFY">     1</i>
   <i type="int" name="NKREDLFZ">     1</i>
   <i type="int" name="MAXMEM">  1800</i>
   <i type="int" name="TELESCOPE">     0</i>
  </separator>
 </parameters>
 <atominfo>
  <atoms>       2 </atoms>
  <types>       1 </types>
  <array name="atoms" >
   <dimension dim="1">ion</dimension>
   <field type="string">element</field>
   <field type="int">atomtype</field>
   <set>
    <rc><c>O </c><c>   1</c></rc>
    <rc><c>O </c><c>   1</c></rc>
   </set>
  </array>
  <array name="atomtypes" >
   <dimension dim="1">type</dimension>
   <field type="int">atomspertype</field>
   <field type="string">element</field>
   <field>mass</field>
   <field>valence</field>
   <field type="string">pseudopotential</field>
   <set>
    <rc><c>   2</c><c>O </c><c>     16.00000000</c><c>      6.00000000</c><c>  PAW_PBE O 08Apr2002                   </c></rc>
   </set>
  </array>
 </atominfo>
 <structure name="initialpos" >
  <crystal>
   <varray name="basis" >
    <v>      10.10000000       0.00000000       0.00000000 </v>
    <v>       0.00000000      10.30000000       0.00000000 </v>
    <v>       0.00000000       0.00000000      10.50000000 </v>
   </varray>
   <i name="volume">   1092.31500000 </i>
   <varray name="rec_basis" >
    <v>       0.09900990       0.00000000       0.00000000 </v>
    <v>       0.00000000       0.09708738       0.00000000 </v>
    <v>       0.00000000       0.00000000       0.09523810 </v>
   </varray>
  </crystal>
  <varray name="positions" >
   <v>       0.00000000       0.00000000       0.00000000 </v>
   <v>       0.00000000       0.00000000       0.12380952 </v>
  </varray>
  <varray name="selective"  type="logical" >
   <v type="logical" >  F  F  T </v>
   <v type="logical" >  F  F  T </v>
  </varray>
  <nose>
   <v>      -3.00000000       0.00000000       0.00010000       0.00010000 </v>
  </nose>
 </structure>
 <calculation>
  <scstep>
   <time name="dav">    0.38    0.39</time>
   <time name="total">    1.20    1.20</time>
   <energy>
    <i name="alphaZ">      0.50884390 </i>
    <i name="ewald">    114.80970197 </i>
    <i name="hartreedc">   -847.39052119 </i>
    <i name="XCdc">     54.01659395 </i>
    <i name="pawpsdc">    693.09895378 </i>
    <i name="pawaedc">   -696.69629511 </i>
    <i name="eentropy">     -0.00000012 </i>
    <i name="bandstr">   -116.92454808 </i>
    <i name="atom">    864.52639207 </i>
    <i name="e_fr_energy">     65.94912117 </i>
    <i name="e_wo_entrp">     65.94912129 </i>
    <i name="e_0_energy">     65.94912123 </i>
   </energy>
  </scstep>
  <scstep>
   <time name="dav">    0.40    0.40</time>
   <time name="total">    0.40    0.40</time>
   <energy>
    <i name="e_fr_energy">     10.24932262 </i>
    <i name="e_wo_entrp">     10.32728121 </i>
    <i name="e_0_energy">     10.28830191 </i>
   </energy>
  </scstep>
  <scstep>
   <time name="dav">    0.49    0.49</time>
   <time name="total">    0.49    0.49</time>
   <energy>
    <i name="e_fr_energy">     -7.91679594 </i>
    <i name="e_wo_entrp">     -7.91679594 </i>
    <i name="e_0_energy">     -7.91679594 </i>
   </energy>
  </scstep>
  <scstep>
   <time name="dav">    0.41    0.41</time>
   <time name="total">    0.41    0.41</time>
   <energy>
    <i name="e_fr_energy">     -9.04197286 </i>
    <i name="e_wo_entrp">     -8.81812068 </i>
    <i name="e_0_energy">     -8.93004677 </i>
   </energy>
  </scstep>
  <scstep>
   <time name="dav">    0.33    0.33</time>
   <time name="total">    0.42    0.42</time>
   <energy>
    <i name="e_fr_energy">     -9.07746069 </i>
    <i name="e_wo_entrp">     -8.85179367 </i>
    <i name="e_0_energy">     -8.96462718 </i>
   </energy>
  </scstep>
  <scstep>
   <time name="diag">    0.07    0.06</time>
   <time name="diis">    0.25    0.25</time>
   <time name="orth">    0.00    0.00</time>
   <time name="total">    1.25    1.25</time>
   <energy>
    <i name="e_fr_energy">     -8.86699778 </i>
    <i name="e_wo_entrp">     -8.64132195 </i>
    <i name="e_0_energy">     -8.75415986 </i>
   </energy>
  </scstep>
  <scstep>
   <time name="diag">    0.06    0.07</time>
   <time name="diis">    0.25    0.25</time>
   <time name="orth">    0.00    0.00</time>
   <time name="total">    1.28    1.28</time>
   <energy>
    <i name="e_fr_energy">     -8.83046380 </i>
    <i name="e_wo_entrp">     -8.60479139 </i>
    <i name="e_0_energy">     -8.71762760 </i>
   </energy>
  </scstep>
  <scstep>
   <time name="diag">    0.07    0.06</time>
   <time name="diis">    0.26    0.26</time>
   <time name="orth">    0.00    0.00</time>
   <time name="total">    1.29    1.29</time>
   <energy>
    <i name="e_fr_energy">     -8.83056031 </i>
    <i name="e_wo_entrp">     -8.60489053 </i>
    <i name="e_0_energy">     -8.71772542 </i>
   </energy>
  </scstep>
  <scstep>
   <time name="diag">    0.06    0.07</time>
   <time name="diis">    0.21    0.21</time>
   <time name="orth">    0.00    0.00</time>
   <time name="total">    1.14    1.14</time>
   <energy>
    <i name="alphaZ">      0.50884390 </i>
    <i name="ewald">    114.80970197 </i>
    <i name="hartreedc">   -850.87566879 </i>
    <i name="XCdc">     54.41614787 </i>
    <i name="pawpsdc">    853.93673664 </i>
    <i name="pawaedc">   -857.37284522 </i>
    <i name="eentropy">     -0.22567386 </i>
    <i name="bandstr">   -188.55423096 </i>
    <i name="atom">    864.52639207 </i>
    <i name="e_fr_energy">     -8.83059639 </i>
    <i name="e_wo_entrp">     -8.60492253 </i>
    <i name="e_0_energy">     -8.71775946 </i>
   </energy>
  </scstep>
  <structure>
   <crystal>
    <varray name="basis" >
     <v>      10.10000000       0.00000000       0.00000000 </v>
     <v>       0.00000000      10.30000000       0.00000000 </v>
     <v>       0.00000000       0.00000000      10.50000000 </v>
    </varray>
    <i name="volume">   1092.31500000 </i>
    <varray name="rec_basis" >
     <v>       0.09900990       0.00000000       0.00000000 </v>
     <v>       0.00000000       0.09708738       0.00000000 </v>
     <v>       0.00000000       0.00000000       0.09523810 </v>
    </varray>
   </crystal>
   <varray name="positions" >
    <v>       0.00000000       0.00000000       0.00000000 </v>
    <v>       0.00000000       0.00000000       0.12380952 </v>
   </varray>
  </structure>
  <varray name="forces" >
   <v>       0.00000000       0.00000000       3.62592672 </v>
   <v>       0.00000000       0.00000000      -3.62592672 </v>
  </varray>
  <varray name="stress" >
   <v>      -2.17068544       0.00000000       0.00000000 </v>
   <v>       0.00000000      -2.15270185       0.00000000 </v>
   <v>       0.00000000       0.00000000      -8.44010211 </v>
  </varray>
  <energy>
   <i name="e_fr_energy">     -8.83059639 </i>
   <i name="e_wo_entrp">     -8.71775946 </i>
   <i name="e_0_energy">     -0.22567386 </i>
  </energy>
  <time name="totalsc">   10.40   10.42</time>
 </calculation>
 <calculation>
  <scstep>
   <time name="dav">    0.29    0.29</time>
   <time name="total">    1.25    1.25</time>
   <energy>
    <i name="alphaZ">      0.50884390 </i>
    <i name="ewald">    260.89388098 </i>
    <i name="hartreedc">   -947.35387944 </i>
    <i name="XCdc">     56.46531137 </i>
    <i name="pawpsdc">    853.78923032 </i>
    <i name="pawaedc">   -857.22470320 </i>
    <i name="eentropy">     -0.22567047 </i>
    <i name="bandstr">   -233.86055327 </i>
    <i name="atom">    864.52639207 </i>
    <i name="e_fr_energy">     -2.48114774 </i>
    <i name="e_wo_entrp">     -2.25547727 </i>
    <i name="e_0_energy">     -2.36831251 </i>
   </energy>
  </scstep>
  <scstep>
   <time name="diag">    0.06    0.06</time>
   <time name="diis">    0.25    0.25</time>
   <time name="orth">    0.00    0.00</time>
   <time name="total">    1.22    1.22</time>
   <energy>
    <i name="e_fr_energy">     -2.94805418 </i>
    <i name="e_wo_entrp">     -2.72237916 </i>
    <i name="e_0_energy">     -2.83521667 </i>
   </energy>
  </scstep>
  <scstep>
   <time name="diag">    0.06    0.06</time>
   <time name="diis">    0.25    0.25</time>
   <time name="orth">    0.00    0.00</time>
   <time name="total">    1.21    1.22</time>
   <energy>
    <i name="e_fr_energy">     -2.68359742 </i>
    <i name="e_wo_entrp">     -2.45792651 </i>
    <i name="e_0_energy">     -2.57076196 </i>
   </energy>
  </scstep>
  <scstep>
   <time name="diag">    0.06    0.06</time>
   <time name="diis">    0.27    0.27</time>
   <time name="orth">    0.00    0.00</time>
   <time name="total">    1.22    1.22</time>
   <energy>
    <i name="e_fr_energy">     -2.67490133 </i>
    <i name="e_wo_entrp">     -2.44922656 </i>
    <i name="e_0_energy">     -2.56206394 </i>
   </energy>
  </scstep>
  <scstep>
   <time name="diag">    0.06    0.06</time>
   <time name="diis">    0.25    0.25</time>
   <time name="orth">    0.00    0.00</time>
   <time name="total">    1.16    1.16</time>
   <energy>
    <i name="e_fr_energy">     -2.67782993 </i>
    <i name="e_wo_entrp">     -2.45219429 </i>
    <i name="e_0_energy">     -2.56501211 </i>
   </energy>
  </scstep>
  <scstep>
   <time name="diag">    0.06    0.06</time>
   <time name="diis">    0.27    0.27</time>
   <time name="orth">    0.00    0.00</time>
   <time name="total">    1.18    1.18</time>
   <energy>
    <i name="e_fr_energy">     -2.67717404 </i>
    <i name="e_wo_entrp">     -2.45149839 </i>
    <i name="e_0_energy">     -2.56433622 </i>
   </energy>
  </scstep>
  <scstep>
   <time name="diag">    0.06    0.06</time>
   <time name="diis">    0.27    0.27</time>
   <time name="orth">    0.00    0.00</time>
   <time name="total">    1.18    1.18</time>
   <energy>
    <i name="e_fr_energy">     -2.67811868 </i>
    <i name="e_wo_entrp">     -2.45244432 </i>
    <i name="e_0_energy">     -2.56528150 </i>
   </energy>
  </scstep>
  <scstep>
   <time name="diag">    0.06    0.06</time>
   <time name="diis">    0.24    0.24</time>
   <time name="orth">    0.00    0.00</time>
   <time name="total">    1.14    1.14</time>
   <energy>
    <i name="e_fr_energy">     -2.67953534 </i>
    <i name="e_wo_entrp">     -2.45386014 </i>
    <i name="e_0_energy">     -2.56669774 </i>
   </energy>
  </scstep>
  <scstep>
   <time name="diag">    0.06    0.06</time>
   <time name="diis">    0.24    0.24</time>
   <time name="orth">    0.00    0.00</time>
   <time name="total">    1.14    1.14</time>
   <energy>
    <i name="e_fr_energy">     -2.67995938 </i>
    <i name="e_wo_entrp">     -2.45428456 </i>
    <i name="e_0_energy">     -2.56712197 </i>
   </energy>
  </scstep>
  <scstep>
   <time name="diag">    0.06    0.06</time>
   <time name="diis">    0.24    0.25</time>
   <time name="orth">    0.00    0.00</time>
   <time name="total">    1.15    1.15</time>
   <energy>
    <i name="e_fr_energy">     -2.68034935 </i>
    <i name="e_wo_entrp">     -2.45467424 </i>
    <i name="e_0_energy">     -2.56751180 </i>
   </energy>
  </scstep>
  <scstep>
   <time name="diag">    0.06    0.06</time>
   <time name="diis">    0.18    0.17</time>
   <time name="orth">    0.00    0.00</time>
   <time name="total">    0.97    0.97</time>
   <energy>
    <i name="alphaZ">      0.50884390 </i>
    <i name="ewald">    260.89388098 </i>
    <i name="hartreedc">   -967.19688472 </i>
    <i name="XCdc">     57.61785342 </i>
    <i name="pawpsdc">   1189.58221393 </i>
    <i name="pawaedc">  -1194.02131526 </i>
    <i name="eentropy">     -0.22567493 </i>
    <i name="bandstr">   -214.36571453 </i>
    <i name="atom">    864.52639207 </i>
    <i name="e_fr_energy">     -2.68040512 </i>
    <i name="e_wo_entrp">     -2.45473020 </i>
    <i name="e_0_energy">     -2.56756766 </i>
   </energy>
  </scstep>
  <structure>
   <crystal>
    <varray name="basis" >
     <v>      10.10000000       0.00000000       0.00000000 </v>
     <v>       0.00000000      10.30000000       0.00000000 </v>
     <v>       0.00000000       0.00000000      10.50000000 </v>
    </varray>
    <i name="volume">   1092.31500000 </i>
    <varray name="rec_basis" >
     <v>       0.09900990       0.00000000       0.00000000 </v>
     <v>       0.00000000       0.09708738       0.00000000 </v>
     <v>       0.00000000       0.00000000       0.09523810 </v>
    </varray>
   </crystal>
   <varray name="positions" >
    <v>       0.00000000       0.00000000       0.01665946 </v>
    <v>       0.00000000       0.00000000       0.10715006 </v>
   </varray>
  </structure>
  <varray name="forces" >
   <v>       0.00000000       0.00000000     -62.55721871 </v>
   <v>       0.00000000       0.00000000      62.55721871 </v>
  </varray>
  <varray name="stress" >
   <v>      -2.41663046       0.00000000       0.00000000 </v>
   <v>       0.00000000      -2.32239581       0.00000000 </v>
   <v>       0.00000000       0.00000000      85.46652130 </v>
  </varray>
  <energy>
   <i name="e_fr_energy">     -2.68040512 </i>
   <i name="e_wo_entrp">     -2.56756766 </i>
   <i name="e_0_energy">     -0.22567493 </i>
  </energy>
  <time name="totalsc">   15.21   15.22</time>
 </calculation>
 <calculation>
  <scstep>
   <time name="dav">    0.32    0.33</time>
   <time name="total">    1.15    1.16</time>
   <energy>
    <i name="alphaZ">      0.50884390 </i>
    <i name="ewald">    120.72983306 </i>
    <i name="hartreedc">   -874.30257555 </i>
    <i name="XCdc">     55.67870310 </i>
    <i name="pawpsdc">   1189.48601200 </i>
    <i name="pawaedc">  -1193.92408356 </i>
    <i name="eentropy">     -0.22567538 </i>
    <i name="bandstr">   -171.87156818 </i>
    <i name="atom">    864.52639207 </i>
    <i name="e_fr_energy">     -9.39411854 </i>
    <i name="e_wo_entrp">     -9.16844317 </i>
    <i name="e_0_energy">     -9.28128085 </i>
   </energy>
  </scstep>
  <scstep>
   <time name="diag">    0.06    0.06</time>
   <time name="diis">    0.24    0.25</time>
   <time name="orth">    0.00    0.00</time>
   <time name="total">    1.02    1.02</time>
   <energy>
    <i name="e_fr_energy">     -8.92487565 </i>
    <i name="e_wo_entrp">     -8.69921174 </i>
    <i name="e_0_energy">     -8.81204369 </i>
   </energy>
  </scstep>
  <scstep>
   <time name="diag">    0.06    0.06</time>
   <time name="diis">    0.25    0.25</time>
   <time name="orth">    0.00    0.00</time>
   <time name="total">    1.03    1.03</time>
   <energy>
    <i name="e_fr_energy">     -8.88802275 </i>
    <i name="e_wo_entrp">     -8.66235597 </i>
    <i name="e_0_energy">     -8.77518936 </i>
   </energy>
  </scstep>
  <scstep>
   <time name="diag">    0.06    0.06</time>
   <time name="diis">    0.27    0.27</time>
   <time name="orth">    0.00    0.00</time>
   <time name="total">    1.10    1.10</time>
   <energy>
    <i name="e_fr_energy">     -8.88912825 </i>
    <i name="e_wo_entrp">     -8.66354534 </i>
    <i name="e_0_energy">     -8.77633679 </i>
   </energy>
  </scstep>
  <scstep>
   <time name="diag">    0.06    0.06</time>
   <time name="diis">    0.25    0.25</time>
   <time name="orth">    0.00    0.00</time>
   <time name="total">    1.10    1.10</time>
   <energy>
    <i name="e_fr_energy">     -8.88912206 </i>
    <i name="e_wo_entrp">     -8.66344987 </i>
    <i name="e_0_energy">     -8.77628596 </i>
   </energy>
  </scstep>
  <scstep>
   <time name="diag">    0.06    0.06</time>
   <time name="diis">    0.20    0.20</time>
   <time name="orth">    0.00    0.00</time>
   <time name="total">    1.06    1.07</time>
   <energy>
    <i name="e_fr_energy">     -8.88977581 </i>
    <i name="e_wo_entrp">     -8.66410052 </i>
    <i name="e_0_energy">     -8.77693817 </i>
   </energy>
  </scstep>
  <scstep>
   <time name="diag">    0.06    0.06</time>
   <time name="diis">    0.17    0.17</time>
   <time name="orth">    0.00    0.00</time>
   <time name="total">    1.06    1.06</time>
   <energy>
    <i name="e_fr_energy">     -8.89056578 </i>
    <i name="e_wo_entrp">     -8.66489028 </i>
    <i name="e_0_energy">     -8.77772803 </i>
   </energy>
  </scstep>
  <scstep>
   <time name="diag">    0.06    0.06</time>
   <time name="diis">    0.19    0.19</time>
   <time name="orth">    0.00    0.00</time>
   <time name="total">    1.10    1.10</time>
   <energy>
    <i name="e_fr_energy">     -8.89115189 </i>
    <i name="e_wo_entrp">     -8.66547662 </i>
    <i name="e_0_energy">     -8.77831425 </i>
   </energy>
  </scstep>
  <scstep>
   <time name="diag">    0.06    0.06</time>
   <time name="diis">    0.17    0.17</time>
   <time name="orth">    0.00    0.00</time>
   <time name="total">    1.08    1.08</time>
   <energy>
    <i name="e_fr_energy">     -8.89129346 </i>
    <i name="e_wo_entrp">     -8.66561803 </i>
    <i name="e_0_energy">     -8.77845575 </i>
   </energy>
  </scstep>
  <scstep>
   <time name="diag">    0.06    0.06</time>
   <time name="diis">    0.17    0.17</time>
   <time name="orth">    0.00    0.00</time>
   <time name="total">    1.08    1.08</time>
   <energy>
    <i name="e_fr_energy">     -8.89161697 </i>
    <i name="e_wo_entrp">     -8.66594151 </i>
    <i name="e_0_energy">     -8.77877924 </i>
   </energy>
  </scstep>
  <scstep>
   <time name="diag">    0.06    0.06</time>
   <time name="diis">    0.17    0.17</time>
   <time name="orth">    0.00    0.00</time>
   <time name="total">    0.97    0.97</time>
   <energy>
    <i name="alphaZ">      0.50884390 </i>
    <i name="ewald">    120.72983306 </i>
    <i name="hartreedc">   -856.32673246 </i>
    <i name="XCdc">     54.54539944 </i>
    <i name="pawpsdc">    865.17976129 </i>
    <i name="pawaedc">   -868.63377275 </i>
    <i name="eentropy">     -0.22567544 </i>
    <i name="bandstr">   -189.19571202 </i>
    <i name="atom">    864.52639207 </i>
    <i name="e_fr_energy">     -8.89166291 </i>
    <i name="e_wo_entrp">     -8.66598747 </i>
    <i name="e_0_energy">     -8.77882519 </i>
   </energy>
  </scstep>
  <structure>
   <crystal>
    <varray name="basis" >
     <v>      10.10000000       0.00000000       0.00000000 </v>
     <v>       0.00000000      10.30000000       0.00000000 </v>
     <v>       0.00000000       0.00000000      10.50000000 </v>
    </varray>
    <i name="volume">   1092.31500000 </i>
    <varray name="rec_basis" >
     <v>       0.09900990       0.00000000       0.00000000 </v>
     <v>       0.00000000       0.09708738       0.00000000 </v>
     <v>       0.00000000       0.00000000       0.09523810 </v>
    </varray>
   </crystal>
   <varray name="positions" >
    <v>       0.00000000       0.00000000       0.00091271 </v>
    <v>       0.00000000       0.00000000       0.12289682 </v>
   </varray>
  </structure>
  <varray name="forces" >
   <v>       0.00000000       0.00000000       2.71008981 </v>
   <v>       0.00000000       0.00000000      -2.71008981 </v>
  </varray>
  <varray name="stress" >
   <v>      -2.26270300       0.00000000       0.00000000 </v>
   <v>       0.00000000      -2.18655045       0.00000000 </v>
   <v>       0.00000000       0.00000000      -6.71882478 </v>
  </varray>
  <energy>
   <i name="e_fr_energy">     -8.89166291 </i>
   <i name="e_wo_entrp">     -8.77882519 </i>
   <i name="e_0_energy">     -0.22567544 </i>
  </energy>
  <time name="totalsc">   14.18   14.19</time>
 </calculation>
 <calculation>
  <scstep>
   <time name="dav">    0.29    0.29</time>
   <time name="total">    1.13    1.13</time>
   <energy>
    <i name="alphaZ">      0.50884390 </i>
    <i name="ewald">    125.08239760 </i>
    <i name="hartreedc">   -859.61522514 </i>
    <i name="XCdc">     54.60144690 </i>
    <i name="pawpsdc">    865.10332470 </i>
    <i name="pawaedc">   -868.55752802 </i>
    <i name="eentropy">     -0.22567537 </i>
    <i name="bandstr">   -190.34786927 </i>
    <i name="atom">    864.52639207 </i>
    <i name="e_fr_energy">     -8.92389263 </i>
    <i name="e_wo_entrp">     -8.69821726 </i>
    <i name="e_0_energy">     -8.81105495 </i>
   </energy>
  </scstep>
  <scstep>
   <time name="diag">    0.06    0.06</time>
   <time name="diis">    0.25    0.25</time>
   <time name="orth">    0.00    0.00</time>
   <time name="total">    1.17    1.17</time>
   <energy>
    <i name="e_fr_energy">     -8.92383598 </i>
    <i name="e_wo_entrp">     -8.69816048 </i>
    <i name="e_0_energy">     -8.81099823 </i>
   </energy>
  </scstep>
  <scstep>
   <time name="diag">    0.06    0.06</time>
   <time name="diis">    0.25    0.25</time>
   <time name="orth">    0.00    0.00</time>
   <time name="total">    1.10    1.10</time>
   <energy>
    <i name="alphaZ">      0.50884390 </i>
    <i name="ewald">    125.08239760 </i>
    <i name="hartreedc">   -860.22583558 </i>
    <i name="XCdc">     54.64151947 </i>
    <i name="pawpsdc">    872.37960460 </i>
    <i name="pawaedc">   -875.84966911 </i>
    <i name="eentropy">     -0.22567530 </i>
    <i name="bandstr">   -189.76151231 </i>
    <i name="atom">    864.52639207 </i>
    <i name="e_fr_energy">     -8.92393465 </i>
    <i name="e_wo_entrp">     -8.69825936 </i>
    <i name="e_0_energy">     -8.81109700 </i>
   </energy>
  </scstep>
  <structure>
   <crystal>
    <varray name="basis" >
     <v>      10.10000000       0.00000000       0.00000000 </v>
     <v>       0.00000000      10.30000000       0.00000000 </v>
     <v>       0.00000000       0.00000000      10.50000000 </v>
    </varray>
    <i name="volume">   1092.31500000 </i>
    <varray name="rec_basis" >
     <v>       0.09900990       0.00000000       0.00000000 </v>
     <v>       0.00000000       0.09708738       0.00000000 </v>
     <v>       0.00000000       0.00000000       0.09523810 </v>
    </varray>
   </crystal>
   <varray name="positions" >
    <v>       0.00000000       0.00000000       0.00156656 </v>
    <v>       0.00000000       0.00000000       0.12224297 </v>
   </varray>
  </structure>
  <varray name="forces" >
   <v>       0.00000000       0.00000000       1.96980260 </v>
   <v>       0.00000000       0.00000000      -1.96980260 </v>
  </varray>
  <varray name="stress" >
   <v>      -2.29527487       0.00000000       0.00000000 </v>
   <v>       0.00000000      -2.22497587       0.00000000 </v>
   <v>       0.00000000       0.00000000      -5.37366569 </v>
  </varray>
  <energy>
   <i name="e_fr_energy">     -8.92393465 </i>
   <i name="e_wo_entrp">     -8.81109700 </i>
   <i name="e_0_energy">     -0.22567530 </i>
  </energy>
  <time name="totalsc">    5.86    5.86</time>
 </calculation>
 <calculation>
  <scstep>
   <time name="dav">    0.33    0.33</time>
   <time name="total">    1.22    1.22</time>
   <energy>
    <i name="alphaZ">      0.50884390 </i>
    <i name="ewald">    137.14258593 </i>
    <i name="hartreedc">   -869.12095197 </i>
    <i name="XCdc">     54.79534604 </i>
    <i name="pawpsdc">    872.95871713 </i>
    <i name="pawaedc">   -876.42831999 </i>
    <i name="eentropy">     -0.22567531 </i>
    <i name="bandstr">   -193.11121566 </i>
    <i name="atom">    864.52639207 </i>
    <i name="e_fr_energy">     -8.95427787 </i>
    <i name="e_wo_entrp">     -8.72860256 </i>
    <i name="e_0_energy">     -8.84144022 </i>
   </energy>
  </scstep>
  <scstep>
   <time name="diag">    0.06    0.06</time>
   <time name="diis">    0.25    0.25</time>
   <time name="orth">    0.00    0.00</time>
   <time name="total">    1.21    1.21</time>
   <energy>
    <i name="e_fr_energy">     -8.95527749 </i>
    <i name="e_wo_entrp">     -8.72960243 </i>
    <i name="e_0_energy">     -8.84243996 </i>
   </energy>
  </scstep>
  <scstep>
   <time name="diag">    0.06    0.06</time>
   <time name="diis">    0.25    0.25</time>
   <time name="orth">    0.00    0.00</time>
   <time name="total">    1.22    1.22</time>
   <energy>
    <i name="e_fr_energy">     -8.95472720 </i>
    <i name="e_wo_entrp">     -8.72905154 </i>
    <i name="e_0_energy">     -8.84188937 </i>
   </energy>
  </scstep>
  <scstep>
   <time name="diag">    0.06    0.06</time>
   <time name="diis">    0.18    0.17</time>
   <time name="orth">    0.00    0.00</time>
   <time name="total">    1.14    1.14</time>
   <energy>
    <i name="e_fr_energy">     -8.95485300 </i>
    <i name="e_wo_entrp">     -8.72917789 </i>
    <i name="e_0_energy">     -8.84201544 </i>
   </energy>
  </scstep>
  <scstep>
   <time name="diag">    0.07    0.06</time>
   <time name="diis">    0.17    0.17</time>
   <time name="orth">    0.00    0.00</time>
   <time name="total">    1.11    1.11</time>
   <energy>
    <i name="e_fr_energy">     -8.95504249 </i>
    <i name="e_wo_entrp">     -8.72936670 </i>
    <i name="e_0_energy">     -8.84220459 </i>
   </energy>
  </scstep>
  <scstep>
   <time name="diag">    0.06    0.06</time>
   <time name="diis">    0.17    0.17</time>
   <time name="orth">    0.01    0.00</time>
   <time name="total">    1.01    1.01</time>
   <energy>
    <i name="alphaZ">      0.50884390 </i>
    <i name="ewald">    137.14258593 </i>
    <i name="hartreedc">   -870.64468563 </i>
    <i name="XCdc">     54.89569507 </i>
    <i name="pawpsdc">    900.24846209 </i>
    <i name="pawaedc">   -903.76653397 </i>
    <i name="eentropy">     -0.22567535 </i>
    <i name="bandstr">   -191.64013203 </i>
    <i name="atom">    864.52639207 </i>
    <i name="e_fr_energy">     -8.95504793 </i>
    <i name="e_wo_entrp">     -8.72937258 </i>
    <i name="e_0_energy">     -8.84221025 </i>
   </energy>
  </scstep>
  <structure>
   <crystal>
    <varray name="basis" >
     <v>      10.10000000       0.00000000       0.00000000 </v>
     <v>       0.00000000      10.30000000       0.00000000 </v>
     <v>       0.00000000       0.00000000      10.50000000 </v>
    </varray>
    <i name="volume">   1092.31500000 </i>
    <varray name="rec_basis" >
     <v>       0.09900990       0.00000000       0.00000000 </v>
     <v>       0.00000000       0.09708738       0.00000000 </v>
     <v>       0.00000000       0.00000000       0.09523810 </v>
    </varray>
   </crystal>
   <varray name="positions" >
    <v>       0.00000000       0.00000000       0.00330637 </v>
    <v>       0.00000000       0.00000000       0.12050316 </v>
   </varray>
  </structure>
  <varray name="forces" >
   <v>       0.00000000       0.00000000      -0.37354528 </v>
   <v>       0.00000000       0.00000000       0.37354528 </v>
  </varray>
  <varray name="stress" >
   <v>      -2.23266213       0.00000000       0.00000000 </v>
   <v>       0.00000000      -2.15669534       0.00000000 </v>
   <v>       0.00000000       0.00000000      -1.05828828 </v>
  </varray>
  <energy>
   <i name="e_fr_energy">     -8.95504793 </i>
   <i name="e_wo_entrp">     -8.84221025 </i>
   <i name="e_0_energy">     -0.22567535 </i>
  </energy>
  <time name="totalsc">    9.32    9.33</time>
 </calculation>
 <calculation>
  <scstep>
   <time name="dav">    0.33    0.33</time>
   <time name="total">    1.18    1.18</time>
   <energy>
    <i name="alphaZ">      0.50884390 </i>
    <i name="ewald">    135.17182923 </i>
    <i name="hartreedc">   -869.25696052 </i>
    <i name="XCdc">     54.87355589 </i>
    <i name="pawpsdc">    900.25867758 </i>
    <i name="pawaedc">   -903.77792584 </i>
    <i name="eentropy">     -0.22567545 </i>
    <i name="bandstr">   -191.03483445 </i>
    <i name="atom">    864.52639207 </i>
    <i name="e_fr_energy">     -8.95609758 </i>
    <i name="e_wo_entrp">     -8.73042214 </i>
    <i name="e_0_energy">     -8.84325986 </i>
   </energy>
  </scstep>
  <scstep>
   <time name="diag">    0.06    0.06</time>
   <time name="diis">    0.23    0.23</time>
   <time name="orth">    0.00    0.00</time>
   <time name="total">    1.15    1.15</time>
   <energy>
    <i name="e_fr_energy">     -8.95600390 </i>
    <i name="e_wo_entrp">     -8.73032854 </i>
    <i name="e_0_energy">     -8.84316622 </i>
   </energy>
  </scstep>
  <scstep>
   <time name="diag">    0.06    0.06</time>
   <time name="diis">    0.22    0.22</time>
   <time name="orth">    0.00    0.00</time>
   <time name="total">    1.04    1.04</time>
   <energy>
    <i name="alphaZ">      0.50884390 </i>
    <i name="ewald">    135.17182923 </i>
    <i name="hartreedc">   -868.90145465 </i>
    <i name="XCdc">     54.85120025 </i>
    <i name="pawpsdc">    896.53030051 </i>
    <i name="pawaedc">   -900.03997803 </i>
    <i name="eentropy">     -0.22567545 </i>
    <i name="bandstr">   -191.37753437 </i>
    <i name="atom">    864.52639207 </i>
    <i name="e_fr_energy">     -8.95607653 </i>
    <i name="e_wo_entrp">     -8.73040108 </i>
    <i name="e_0_energy">     -8.84323880 </i>
   </energy>
  </scstep>
  <structure>
   <crystal>
    <varray name="basis" >
     <v>      10.10000000       0.00000000       0.00000000 </v>
     <v>       0.00000000      10.30000000       0.00000000 </v>
     <v>       0.00000000       0.00000000      10.50000000 </v>
    </varray>
    <i name="volume">   1092.31500000 </i>
    <varray name="rec_basis" >
     <v>       0.09900990       0.00000000       0.00000000 </v>
     <v>       0.00000000       0.09708738       0.00000000 </v>
     <v>       0.00000000       0.00000000       0.09523810 </v>
    </varray>
   </crystal>
   <varray name="positions" >
    <v>       0.00000000       0.00000000       0.00302903 </v>
    <v>       0.00000000       0.00000000       0.12078049 </v>
   </varray>
  </structure>
  <varray name="forces" >
   <v>       0.00000000       0.00000000       0.04660357 </v>
   <v>       0.00000000       0.00000000      -0.04660357 </v>
  </varray>
  <varray name="stress" >
   <v>      -2.23598480       0.00000000       0.00000000 </v>
   <v>       0.00000000      -2.15525357       0.00000000 </v>
   <v>       0.00000000       0.00000000      -1.80051239 </v>
  </varray>
  <energy>
   <i name="e_fr_energy">     -8.95607653 </i>
   <i name="e_wo_entrp">     -8.84323880 </i>
   <i name="e_0_energy">     -0.22567545 </i>
  </energy>
  <time name="totalsc">    5.78    5.79</time>
 </calculation>
 <calculation>
  <scstep>
   <time name="dav">    0.33    0.33</time>
   <time name="total">    1.18    1.18</time>
   <energy>
    <i name="alphaZ">      0.50884390 </i>
    <i name="ewald">    135.38950290 </i>
    <i name="hartreedc">   -869.09859993 </i>
    <i name="XCdc">     54.85620896 </i>
    <i name="pawpsdc">    896.39432162 </i>
    <i name="pawaedc">   -899.90465065 </i>
    <i name="eentropy">     -0.22567534 </i>
    <i name="bandstr">   -191.40244135 </i>
    <i name="atom">    864.52639207 </i>
    <i name="e_fr_energy">     -8.95609782 </i>
    <i name="e_wo_entrp">     -8.73042248 </i>
    <i name="e_0_energy">     -8.84326015 </i>
   </energy>
  </scstep>
  <scstep>
   <time name="diag">    0.06    0.06</time>
   <time name="diis">    0.16    0.16</time>
   <time name="orth">    0.00    0.00</time>
   <time name="total">    0.99    0.99</time>
   <energy>
    <i name="alphaZ">      0.50884390 </i>
    <i name="ewald">    135.38950290 </i>
    <i name="hartreedc">   -869.12279716 </i>
    <i name="XCdc">     54.85771054 </i>
    <i name="pawpsdc">    896.36775794 </i>
    <i name="pawaedc">   -899.87841221 </i>
    <i name="eentropy">     -0.22567542 </i>
    <i name="bandstr">   -191.37943552 </i>
    <i name="atom">    864.52639207 </i>
    <i name="e_fr_energy">     -8.95611296 </i>
    <i name="e_wo_entrp">     -8.73043753 </i>
    <i name="e_0_energy">     -8.84327524 </i>
   </energy>
  </scstep>
  <structure>
   <crystal>
    <varray name="basis" >
     <v>      10.10000000       0.00000000       0.00000000 </v>
     <v>       0.00000000      10.30000000       0.00000000 </v>
     <v>       0.00000000       0.00000000      10.50000000 </v>
    </varray>
    <i name="volume">   1092.31500000 </i>
    <varray name="rec_basis" >
     <v>       0.09900990       0.00000000       0.00000000 </v>
     <v>       0.00000000       0.09708738       0.00000000 </v>
     <v>       0.00000000       0.00000000       0.09523810 </v>
    </varray>
   </crystal>
   <varray name="positions" >
    <v>       0.00000000       0.00000000       0.00305979 </v>
    <v>       0.00000000       0.00000000       0.12074973 </v>
   </varray>
  </structure>
  <varray name="forces" >
   <v>       0.00000000       0.00000000      -0.00173573 </v>
   <v>       0.00000000       0.00000000       0.00173573 </v>
  </varray>
  <varray name="stress" >
   <v>      -2.24236869       0.00000000       0.00000000 </v>
   <v>       0.00000000      -2.16291453       0.00000000 </v>
   <v>       0.00000000       0.00000000      -1.72100926 </v>
  </varray>
  <energy>
   <i name="e_fr_energy">     -8.95611296 </i>
   <i name="e_wo_entrp">     -8.84327524 </i>
   <i name="e_0_energy">     -0.22567542 </i>
  </energy>
  <time name="totalsc">    4.39    4.40</time>
  <eigenvalues>
   <array>
    <dimension dim="1">band</dimension>
    <dimension dim="2">kpoint</dimension>
    <dimension dim="3">spin</dimension>
    <field>eigene</field>
    <field>occ</field>
    <set>
     <set comment="spin 1">
      <set comment="kpoint 1">
       <r>  -31.9698    1.0000 </r>
       <r>  -19.8729    1.0000 </r>
       <r>  -13.0069    1.0000 </r>
       <r>  -12.4408    1.0000 </r>
       <r>  -12.4400    1.0000 </r>
       <r>   -5.9596    0.5008 </r>
       <r>   -5.9591    0.4992 </r>
       <r>   -0.3015    0.0000 </r>
       <r>    0.8171    0.0000 </r>
       <r>    1.0653    0.0000 </r>
      </set>
     </set>
    </set>
   </array>
  </eigenvalues>
  <separator name="orbital magnetization" >
   <v name="MAGDIPOLOUT">      0.00000000      0.00000000      0.00000000</v>
  </separator>
 </calculation>
 <structure name="finalpos" >
  <crystal>
   <varray name="basis" >
    <v>      10.10000000       0.00000000       0.00000000 </v>
    <v>       0.00000000      10.30000000       0.00000000 </v>
    <v>       0.00000000       0.00000000      10.50000000 </v>
   </varray>
   <i name="volume">   1092.31500000 </i>
   <varray name="rec_basis" >
    <v>       0.09900990       0.00000000       0.00000000 </v>
    <v>       0.00000000       0.09708738       0.00000000 </v>
    <v>       0.00000000       0.00000000       0.09523810 </v>
   </varray>
  </crystal>
  <varray name="positions" >
   <v>       0.00000000       0.00000000       0.00305979 </v>
   <v>       0.00000000       0.00000000       0.12074973 </v>
  </varray>
  <varray name="selective"  type="logical" >
   <v type="logical" >  F  F  T </v>
   <v type="logical" >  F  F  T </v>
  </varray>
  <nose>
   <v>      -3.00000000       0.00000000       0.00010000       0.00010000 </v>
  </nose>
 </structure>
</modeling>
