Hello World                             
           1
    10.100000    0.000000    0.000000
     0.000000   10.300000    0.000000
     0.000000    0.000000   10.500000
   O 
   2
Direct configuration=     1
   0.00000000  0.00000000  0.00000000
   0.00000000  0.00000000  0.12380952
Direct configuration=     2
   0.00000000  0.00000000  0.01665946
   0.00000000  0.00000000  0.10715006
Direct configuration=     3
   0.00000000  0.00000000  0.00091271
   0.00000000  0.00000000  0.12289682
Direct configuration=     4
   0.00000000  0.00000000  0.00156656
   0.00000000  0.00000000  0.12224297
Direct configuration=     5
   0.00000000  0.00000000  0.00330637
   0.00000000  0.00000000  0.12050316
Direct configuration=     6
   0.00000000  0.00000000  0.00302903
   0.00000000  0.00000000  0.12078049
Direct configuration=     7
   0.00000000  0.00000000  0.00305979
   0.00000000  0.00000000  0.12074973
