  12  12   0   0
  0.8426606E+01  0.4658842E-09  0.4658842E-09  0.4658842E-09  0.5000000E-15
  1.000000000000000E-004
  CAR 
 Crystal                                 
     31.95661372    -19.55643534  301      0.88577026      1.00000000
    -19.556  0.0000E+00  0.0000E+00  0.0000E+00  0.0000E+00
    -19.385  0.0000E+00  0.0000E+00  0.0000E+00  0.0000E+00
    -19.213  0.0000E+00  0.0000E+00  0.0000E+00  0.0000E+00
    -19.041  0.0000E+00  0.0000E+00  0.0000E+00  0.0000E+00
    -18.870  0.0000E+00  0.0000E+00  0.0000E+00  0.0000E+00
    -18.698  0.0000E+00  0.0000E+00  0.0000E+00  0.0000E+00
    -18.526  0.0000E+00  0.0000E+00  0.0000E+00  0.0000E+00
    -18.354  0.0000E+00  0.0000E+00  0.0000E+00  0.0000E+00
    -18.183  0.0000E+00  0.0000E+00  0.0000E+00  0.0000E+00
    -18.011  0.0000E+00  0.0000E+00  0.0000E+00  0.0000E+00
    -17.839  0.0000E+00  0.0000E+00  0.0000E+00  0.0000E+00
    -17.668  0.0000E+00  0.0000E+00  0.0000E+00  0.0000E+00
    -17.496  0.0000E+00  0.0000E+00  0.0000E+00  0.0000E+00
    -17.324  0.0000E+00  0.0000E+00  0.0000E+00  0.0000E+00
    -17.152  0.0000E+00  0.0000E+00  0.0000E+00  0.0000E+00
    -16.981  0.0000E+00  0.0000E+00  0.0000E+00  0.0000E+00
    -16.809  0.0000E+00  0.0000E+00  0.0000E+00  0.0000E+00
    -16.637  0.0000E+00  0.0000E+00  0.0000E+00  0.0000E+00
    -16.466  0.0000E+00  0.0000E+00  0.0000E+00  0.0000E+00
    -16.294  0.0000E+00  0.0000E+00  0.0000E+00  0.0000E+00
    -16.122  0.0000E+00  0.0000E+00  0.0000E+00  0.0000E+00
    -15.951  0.0000E+00  0.0000E+00  0.0000E+00  0.0000E+00
    -15.779  0.0000E+00  0.0000E+00  0.0000E+00  0.0000E+00
    -15.607  0.2888E-42  0.2770E-42  0.4960E-43  0.4757E-43
    -15.435  0.2760E-29  0.2667E-29  0.4739E-30  0.4579E-30
    -15.264  0.6347E-19  0.6180E-19  0.1090E-19  0.1061E-19
    -15.092  0.3667E-11  0.3598E-11  0.6297E-12  0.6178E-12
    -14.920  0.4468E-06  0.4420E-06  0.7672E-07  0.7589E-07
    -14.749 -0.5408E-05 -0.5080E-05 -0.8520E-06 -0.7964E-06
    -14.577  0.2503E-02  0.2491E-02  0.4290E-03  0.4269E-03
    -14.405  0.3047E-01  0.3038E-01  0.5661E-02  0.5643E-02
    -14.233  0.4598E-01  0.4610E-01  0.1356E-01  0.1356E-01
    -14.062 -0.1319E-02 -0.1327E-02  0.1333E-01  0.1333E-01
    -13.890  0.1923E-04  0.1942E-04  0.1333E-01  0.1333E-01
    -13.718  0.3780E-09  0.3853E-09  0.1333E-01  0.1333E-01
    -13.547  0.9931E-17  0.1035E-16  0.1333E-01  0.1333E-01
    -13.375  0.0000E+00  0.0000E+00  0.1333E-01  0.1333E-01
    -13.203  0.0000E+00  0.0000E+00  0.1333E-01  0.1333E-01
    -13.031  0.0000E+00  0.0000E+00  0.1333E-01  0.1333E-01
    -12.860  0.0000E+00  0.0000E+00  0.1333E-01  0.1333E-01
    -12.688  0.0000E+00  0.0000E+00  0.1333E-01  0.1333E-01
    -12.516  0.0000E+00  0.0000E+00  0.1333E-01  0.1333E-01
    -12.345  0.0000E+00  0.0000E+00  0.1333E-01  0.1333E-01
    -12.173  0.0000E+00  0.0000E+00  0.1333E-01  0.1333E-01
    -12.001  0.0000E+00  0.0000E+00  0.1333E-01  0.1333E-01
    -11.829  0.0000E+00  0.0000E+00  0.1333E-01  0.1333E-01
    -11.658  0.0000E+00  0.0000E+00  0.1333E-01  0.1333E-01
    -11.486  0.0000E+00  0.0000E+00  0.1333E-01  0.1333E-01
    -11.314  0.0000E+00  0.0000E+00  0.1333E-01  0.1333E-01
    -11.143  0.0000E+00  0.0000E+00  0.1333E-01  0.1333E-01
    -10.971  0.0000E+00  0.0000E+00  0.1333E-01  0.1333E-01
    -10.799  0.0000E+00  0.0000E+00  0.1333E-01  0.1333E-01
    -10.628  0.0000E+00  0.0000E+00  0.1333E-01  0.1333E-01
    -10.456  0.0000E+00  0.0000E+00  0.1333E-01  0.1333E-01
    -10.284  0.0000E+00  0.0000E+00  0.1333E-01  0.1333E-01
    -10.112  0.0000E+00  0.0000E+00  0.1333E-01  0.1333E-01
     -9.941  0.0000E+00  0.0000E+00  0.1333E-01  0.1333E-01
     -9.769  0.0000E+00  0.0000E+00  0.1333E-01  0.1333E-01
     -9.597  0.0000E+00  0.0000E+00  0.1333E-01  0.1333E-01
     -9.426  0.0000E+00  0.0000E+00  0.1333E-01  0.1333E-01
     -9.254  0.0000E+00  0.0000E+00  0.1333E-01  0.1333E-01
     -9.082  0.0000E+00  0.0000E+00  0.1333E-01  0.1333E-01
     -8.910  0.0000E+00  0.0000E+00  0.1333E-01  0.1333E-01
     -8.739  0.0000E+00  0.0000E+00  0.1333E-01  0.1333E-01
     -8.567  0.0000E+00  0.0000E+00  0.1333E-01  0.1333E-01
     -8.395  0.0000E+00  0.0000E+00  0.1333E-01  0.1333E-01
     -8.224  0.0000E+00  0.0000E+00  0.1333E-01  0.1333E-01
     -8.052  0.0000E+00  0.0000E+00  0.1333E-01  0.1333E-01
     -7.880  0.0000E+00  0.0000E+00  0.1333E-01  0.1333E-01
     -7.708  0.0000E+00  0.0000E+00  0.1333E-01  0.1333E-01
     -7.537  0.0000E+00  0.0000E+00  0.1333E-01  0.1333E-01
     -7.365  0.0000E+00  0.0000E+00  0.1333E-01  0.1333E-01
     -7.193  0.0000E+00  0.0000E+00  0.1333E-01  0.1333E-01
     -7.022  0.0000E+00  0.0000E+00  0.1333E-01  0.1333E-01
     -6.850  0.0000E+00  0.0000E+00  0.1333E-01  0.1333E-01
     -6.678  0.0000E+00  0.0000E+00  0.1333E-01  0.1333E-01
     -6.506  0.0000E+00  0.0000E+00  0.1333E-01  0.1333E-01
     -6.335  0.0000E+00  0.0000E+00  0.1333E-01  0.1333E-01
     -6.163  0.0000E+00  0.0000E+00  0.1333E-01  0.1333E-01
     -5.991  0.0000E+00  0.0000E+00  0.1333E-01  0.1333E-01
     -5.820  0.0000E+00  0.0000E+00  0.1333E-01  0.1333E-01
     -5.648  0.0000E+00  0.0000E+00  0.1333E-01  0.1333E-01
     -5.476  0.0000E+00  0.0000E+00  0.1333E-01  0.1333E-01
     -5.304  0.0000E+00  0.0000E+00  0.1333E-01  0.1333E-01
     -5.133  0.0000E+00  0.0000E+00  0.1333E-01  0.1333E-01
     -4.961  0.0000E+00  0.0000E+00  0.1333E-01  0.1333E-01
     -4.789  0.0000E+00  0.0000E+00  0.1333E-01  0.1333E-01
     -4.618  0.0000E+00  0.0000E+00  0.1333E-01  0.1333E-01
     -4.446  0.0000E+00  0.0000E+00  0.1333E-01  0.1333E-01
     -4.274  0.0000E+00  0.0000E+00  0.1333E-01  0.1333E-01
     -4.103  0.0000E+00  0.0000E+00  0.1333E-01  0.1333E-01
     -3.931  0.0000E+00  0.0000E+00  0.1333E-01  0.1333E-01
     -3.759  0.0000E+00  0.0000E+00  0.1333E-01  0.1333E-01
     -3.587  0.0000E+00  0.0000E+00  0.1333E-01  0.1333E-01
     -3.416  0.0000E+00  0.0000E+00  0.1333E-01  0.1333E-01
     -3.244  0.0000E+00  0.0000E+00  0.1333E-01  0.1333E-01
     -3.072  0.0000E+00  0.0000E+00  0.1333E-01  0.1333E-01
     -2.901  0.0000E+00  0.0000E+00  0.1333E-01  0.1333E-01
     -2.729  0.9788E-38  0.9480E-38  0.1333E-01  0.1333E-01
     -2.557  0.2071E-25  0.2018E-25  0.1333E-01  0.1333E-01
     -2.385  0.1007E-15  0.9876E-16  0.1333E-01  0.1333E-01
     -2.214  0.9588E-09  0.9464E-09  0.1333E-01  0.1333E-01
     -2.042  0.9259E-05  0.9214E-05  0.1333E-01  0.1333E-01
     -1.870 -0.9529E-04 -0.9681E-04  0.1332E-01  0.1332E-01
     -1.699  0.4192E-02  0.4191E-02  0.1404E-01  0.1404E-01
     -1.527  0.6659E-02  0.6649E-02  0.1518E-01  0.1518E-01
     -1.355  0.1411E-01  0.1411E-01  0.1760E-01  0.1760E-01
     -1.183  0.1357E-01  0.1355E-01  0.1993E-01  0.1993E-01
     -1.012  0.9788E-02  0.9811E-02  0.2161E-01  0.2161E-01
     -0.840  0.1081E-01  0.1080E-01  0.2347E-01  0.2347E-01
     -0.668  0.1277E-01  0.1277E-01  0.2566E-01  0.2566E-01
     -0.497  0.1343E-01  0.1342E-01  0.2797E-01  0.2797E-01
     -0.325  0.2303E-01  0.2301E-01  0.3192E-01  0.3192E-01
     -0.153  0.2722E-01  0.2723E-01  0.3660E-01  0.3659E-01
      0.019  0.2163E-01  0.2164E-01  0.4031E-01  0.4031E-01
      0.190  0.1879E-01  0.1877E-01  0.4354E-01  0.4353E-01
      0.362  0.3033E-01  0.3036E-01  0.4875E-01  0.4874E-01
      0.534  0.1135E-01  0.1133E-01  0.5069E-01  0.5069E-01
      0.705  0.1206E-01  0.1208E-01  0.5276E-01  0.5276E-01
      0.877  0.3290E-02  0.3297E-02  0.5333E-01  0.5333E-01
      1.049  0.1792E-04  0.1857E-04  0.5333E-01  0.5333E-01
      1.220  0.3928E-05  0.3943E-05  0.5333E-01  0.5333E-01
      1.392  0.2302E-08  0.2336E-08  0.5333E-01  0.5333E-01
      1.564  0.1153E-14  0.1180E-14  0.5333E-01  0.5333E-01
      1.736  0.0000E+00  0.0000E+00  0.5333E-01  0.5333E-01
      1.907  0.0000E+00  0.0000E+00  0.5333E-01  0.5333E-01
      2.079  0.0000E+00  0.0000E+00  0.5333E-01  0.5333E-01
      2.251  0.0000E+00  0.0000E+00  0.5333E-01  0.5333E-01
      2.422  0.0000E+00  0.0000E+00  0.5333E-01  0.5333E-01
      2.594  0.0000E+00  0.0000E+00  0.5333E-01  0.5333E-01
      2.766  0.0000E+00  0.0000E+00  0.5333E-01  0.5333E-01
      2.938  0.0000E+00  0.0000E+00  0.5333E-01  0.5333E-01
      3.109  0.0000E+00  0.0000E+00  0.5333E-01  0.5333E-01
      3.281  0.0000E+00  0.0000E+00  0.5333E-01  0.5333E-01
      3.453  0.0000E+00  0.0000E+00  0.5333E-01  0.5333E-01
      3.624  0.0000E+00  0.0000E+00  0.5333E-01  0.5333E-01
      3.796  0.0000E+00  0.0000E+00  0.5333E-01  0.5333E-01
      3.968  0.0000E+00  0.0000E+00  0.5333E-01  0.5333E-01
      4.140  0.0000E+00  0.0000E+00  0.5333E-01  0.5333E-01
      4.311  0.0000E+00  0.0000E+00  0.5333E-01  0.5333E-01
      4.483  0.0000E+00  0.0000E+00  0.5333E-01  0.5333E-01
      4.655  0.0000E+00  0.0000E+00  0.5333E-01  0.5333E-01
      4.826  0.1947E-40  0.1919E-40  0.5333E-01  0.5333E-01
      4.998  0.9039E-28  0.8934E-28  0.5333E-01  0.5333E-01
      5.170  0.9740E-18  0.9653E-18  0.5333E-01  0.5333E-01
      5.342  0.2128E-10  0.2115E-10  0.5333E-01  0.5333E-01
      5.513  0.5632E-06  0.5616E-06  0.5333E-01  0.5333E-01
      5.685 -0.2409E-04 -0.2409E-04  0.5333E-01  0.5333E-01
      5.857  0.5111E-03  0.5110E-03  0.5342E-01  0.5342E-01
      6.028  0.2328E-03  0.2324E-03  0.5346E-01  0.5346E-01
      6.200  0.8807E-03  0.8811E-03  0.5361E-01  0.5361E-01
      6.372  0.1944E-02  0.1943E-02  0.5394E-01  0.5394E-01
      6.544  0.7918E-03  0.7923E-03  0.5408E-01  0.5408E-01
      6.715  0.6752E-02  0.6752E-02  0.5524E-01  0.5524E-01
      6.887  0.2905E-02  0.2904E-02  0.5574E-01  0.5574E-01
      7.059  0.1049E-02  0.1048E-02  0.5592E-01  0.5592E-01
      7.230  0.1153E-01  0.1153E-01  0.5790E-01  0.5790E-01
      7.402 -0.6537E-03 -0.6541E-03  0.5778E-01  0.5778E-01
      7.574  0.7054E-02  0.7051E-02  0.5899E-01  0.5899E-01
      7.745  0.2287E-02  0.2292E-02  0.5939E-01  0.5939E-01
      7.917  0.6537E-02  0.6530E-02  0.6051E-01  0.6051E-01
      8.089  0.2738E-02  0.2743E-02  0.6098E-01  0.6098E-01
      8.261  0.1431E-01  0.1430E-01  0.6344E-01  0.6344E-01
      8.432  0.3526E-03  0.3580E-03  0.6350E-01  0.6350E-01
      8.604  0.9534E-02  0.9529E-02  0.6513E-01  0.6513E-01
      8.776  0.2375E-03  0.2399E-03  0.6518E-01  0.6518E-01
      8.947  0.4621E-02  0.4622E-02  0.6597E-01  0.6597E-01
      9.119  0.3484E-03  0.3490E-03  0.6603E-01  0.6603E-01
      9.291  0.5833E-03  0.5804E-03  0.6613E-01  0.6613E-01
      9.463  0.3215E-02  0.3218E-02  0.6668E-01  0.6668E-01
      9.634 -0.8382E-04 -0.8416E-04  0.6667E-01  0.6667E-01
      9.806  0.7590E-06  0.7627E-06  0.6667E-01  0.6667E-01
      9.978  0.4996E-11  0.5041E-11  0.6667E-01  0.6667E-01
     10.149  0.8786E-16  0.8801E-16  0.6667E-01  0.6667E-01
     10.321  0.8752E-09  0.8761E-09  0.6667E-01  0.6667E-01
     10.493  0.9006E-05  0.9010E-05  0.6667E-01  0.6667E-01
     10.665 -0.1036E-03 -0.1035E-03  0.6665E-01  0.6665E-01
     10.836  0.5439E-02  0.5440E-02  0.6758E-01  0.6758E-01
     11.008  0.4090E-02  0.4089E-02  0.6829E-01  0.6829E-01
     11.180  0.3266E-02  0.3268E-02  0.6885E-01  0.6885E-01
     11.351  0.1910E-01  0.1910E-01  0.7213E-01  0.7213E-01
     11.523  0.6475E-02  0.6474E-02  0.7324E-01  0.7324E-01
     11.695  0.5846E-02  0.5846E-02  0.7424E-01  0.7424E-01
     11.867 -0.3862E-04 -0.3885E-04  0.7424E-01  0.7424E-01
     12.038  0.3326E-04  0.3325E-04  0.7424E-01  0.7424E-01
     12.210  0.3988E-04  0.3948E-04  0.7425E-01  0.7425E-01
     12.382  0.7195E-02  0.7196E-02  0.7549E-01  0.7549E-01
     12.553  0.6403E-02  0.6403E-02  0.7658E-01  0.7658E-01
     12.725  0.9513E-02  0.9512E-02  0.7822E-01  0.7822E-01
     12.897  0.5799E-02  0.5800E-02  0.7921E-01  0.7921E-01
     13.068  0.1602E-01  0.1602E-01  0.8196E-01  0.8196E-01
     13.240  0.1137E-01  0.1137E-01  0.8392E-01  0.8392E-01
     13.412  0.4929E-02  0.4968E-02  0.8476E-01  0.8477E-01
     13.584  0.1595E-01  0.1600E-01  0.8750E-01  0.8752E-01
     13.755  0.8426E-02  0.8331E-02  0.8895E-01  0.8895E-01
     13.927  0.7632E-02  0.9045E-02  0.9026E-01  0.9050E-01
     14.099  0.1816E-01  0.1827E-01  0.9338E-01  0.9364E-01
     14.270  0.6054E-02  0.8270E-02  0.9442E-01  0.9506E-01
     14.442  0.7675E-02  0.7658E-02  0.9573E-01  0.9637E-01
     14.614  0.1552E-02  0.1722E-02  0.9600E-01  0.9667E-01
     14.786  0.4059E-02 -0.1899E-04  0.9670E-01  0.9667E-01
     14.957 -0.1876E-03  0.5280E-05  0.9667E-01  0.9667E-01
     15.129  0.5294E-05  0.6914E-09  0.9667E-01  0.9667E-01
     15.301  0.2443E-09  0.8731E-16  0.9667E-01  0.9667E-01
     15.472  0.1324E-16  0.0000E+00  0.9667E-01  0.9667E-01
     15.644  0.0000E+00  0.0000E+00  0.9667E-01  0.9667E-01
     15.816  0.0000E+00  0.0000E+00  0.9667E-01  0.9667E-01
     15.988  0.0000E+00  0.0000E+00  0.9667E-01  0.9667E-01
     16.159  0.0000E+00  0.0000E+00  0.9667E-01  0.9667E-01
     16.331  0.0000E+00  0.0000E+00  0.9667E-01  0.9667E-01
     16.503  0.0000E+00  0.0000E+00  0.9667E-01  0.9667E-01
     16.674  0.0000E+00  0.0000E+00  0.9667E-01  0.9667E-01
     16.846  0.0000E+00  0.0000E+00  0.9667E-01  0.9667E-01
     17.018  0.0000E+00  0.0000E+00  0.9667E-01  0.9667E-01
     17.190  0.0000E+00  0.0000E+00  0.9667E-01  0.9667E-01
     17.361  0.0000E+00  0.0000E+00  0.9667E-01  0.9667E-01
     17.533  0.0000E+00  0.0000E+00  0.9667E-01  0.9667E-01
     17.705  0.0000E+00  0.0000E+00  0.9667E-01  0.9667E-01
     17.876  0.0000E+00  0.0000E+00  0.9667E-01  0.9667E-01
     18.048  0.0000E+00  0.0000E+00  0.9667E-01  0.9667E-01
     18.220  0.0000E+00  0.0000E+00  0.9667E-01  0.9667E-01
     18.392  0.0000E+00  0.0000E+00  0.9667E-01  0.9667E-01
     18.563  0.0000E+00  0.0000E+00  0.9667E-01  0.9667E-01
     18.735  0.0000E+00  0.0000E+00  0.9667E-01  0.9667E-01
     18.907  0.0000E+00  0.0000E+00  0.9667E-01  0.9667E-01
     19.078  0.0000E+00  0.0000E+00  0.9667E-01  0.9667E-01
     19.250  0.0000E+00  0.0000E+00  0.9667E-01  0.9667E-01
     19.422  0.0000E+00  0.0000E+00  0.9667E-01  0.9667E-01
     19.593  0.0000E+00  0.0000E+00  0.9667E-01  0.9667E-01
     19.765  0.0000E+00  0.0000E+00  0.9667E-01  0.9667E-01
     19.937  0.0000E+00  0.0000E+00  0.9667E-01  0.9667E-01
     20.109  0.0000E+00  0.0000E+00  0.9667E-01  0.9667E-01
     20.280  0.0000E+00  0.0000E+00  0.9667E-01  0.9667E-01
     20.452  0.0000E+00  0.0000E+00  0.9667E-01  0.9667E-01
     20.624  0.0000E+00  0.0000E+00  0.9667E-01  0.9667E-01
     20.795  0.0000E+00  0.0000E+00  0.9667E-01  0.9667E-01
     20.967  0.0000E+00  0.0000E+00  0.9667E-01  0.9667E-01
     21.139  0.0000E+00  0.0000E+00  0.9667E-01  0.9667E-01
     21.311  0.0000E+00  0.0000E+00  0.9667E-01  0.9667E-01
     21.482  0.0000E+00  0.0000E+00  0.9667E-01  0.9667E-01
     21.654  0.0000E+00  0.0000E+00  0.9667E-01  0.9667E-01
     21.826  0.0000E+00  0.0000E+00  0.9667E-01  0.9667E-01
     21.997  0.0000E+00  0.0000E+00  0.9667E-01  0.9667E-01
     22.169  0.0000E+00  0.0000E+00  0.9667E-01  0.9667E-01
     22.341  0.0000E+00  0.0000E+00  0.9667E-01  0.9667E-01
     22.513  0.0000E+00  0.0000E+00  0.9667E-01  0.9667E-01
     22.684  0.0000E+00  0.0000E+00  0.9667E-01  0.9667E-01
     22.856  0.0000E+00  0.0000E+00  0.9667E-01  0.9667E-01
     23.028  0.0000E+00  0.0000E+00  0.9667E-01  0.9667E-01
     23.199  0.0000E+00  0.0000E+00  0.9667E-01  0.9667E-01
     23.371  0.0000E+00  0.0000E+00  0.9667E-01  0.9667E-01
     23.543  0.0000E+00  0.0000E+00  0.9667E-01  0.9667E-01
     23.715  0.0000E+00  0.0000E+00  0.9667E-01  0.9667E-01
     23.886  0.0000E+00  0.0000E+00  0.9667E-01  0.9667E-01
     24.058  0.0000E+00  0.0000E+00  0.9667E-01  0.9667E-01
     24.230  0.0000E+00  0.0000E+00  0.9667E-01  0.9667E-01
     24.401  0.0000E+00  0.0000E+00  0.9667E-01  0.9667E-01
     24.573  0.0000E+00  0.0000E+00  0.9667E-01  0.9667E-01
     24.745  0.0000E+00  0.0000E+00  0.9667E-01  0.9667E-01
     24.916  0.0000E+00  0.0000E+00  0.9667E-01  0.9667E-01
     25.088  0.0000E+00  0.0000E+00  0.9667E-01  0.9667E-01
     25.260  0.0000E+00  0.0000E+00  0.9667E-01  0.9667E-01
     25.432  0.0000E+00  0.0000E+00  0.9667E-01  0.9667E-01
     25.603  0.0000E+00  0.0000E+00  0.9667E-01  0.9667E-01
     25.775  0.0000E+00  0.0000E+00  0.9667E-01  0.9667E-01
     25.947  0.0000E+00  0.0000E+00  0.9667E-01  0.9667E-01
     26.118  0.0000E+00  0.0000E+00  0.9667E-01  0.9667E-01
     26.290  0.0000E+00  0.0000E+00  0.9667E-01  0.9667E-01
     26.462  0.0000E+00  0.0000E+00  0.9667E-01  0.9667E-01
     26.634  0.0000E+00  0.0000E+00  0.9667E-01  0.9667E-01
     26.805  0.0000E+00  0.0000E+00  0.9667E-01  0.9667E-01
     26.977  0.0000E+00  0.0000E+00  0.9667E-01  0.9667E-01
     27.149  0.0000E+00  0.0000E+00  0.9667E-01  0.9667E-01
     27.320  0.0000E+00  0.0000E+00  0.9667E-01  0.9667E-01
     27.492  0.0000E+00  0.0000E+00  0.9667E-01  0.9667E-01
     27.664  0.0000E+00  0.0000E+00  0.9667E-01  0.9667E-01
     27.836  0.0000E+00  0.0000E+00  0.9667E-01  0.9667E-01
     28.007  0.0000E+00  0.0000E+00  0.9667E-01  0.9667E-01
     28.179  0.0000E+00  0.0000E+00  0.9667E-01  0.9667E-01
     28.351  0.0000E+00  0.0000E+00  0.9667E-01  0.9667E-01
     28.522  0.0000E+00  0.0000E+00  0.9667E-01  0.9667E-01
     28.694  0.0000E+00  0.0000E+00  0.9667E-01  0.9667E-01
     28.866  0.0000E+00  0.0000E+00  0.9667E-01  0.9667E-01
     29.038  0.0000E+00  0.0000E+00  0.9667E-01  0.9667E-01
     29.209  0.0000E+00  0.0000E+00  0.9667E-01  0.9667E-01
     29.381  0.0000E+00  0.0000E+00  0.9667E-01  0.9667E-01
     29.553  0.0000E+00  0.0000E+00  0.9667E-01  0.9667E-01
     29.724  0.0000E+00  0.0000E+00  0.9667E-01  0.9667E-01
     29.896  0.0000E+00  0.0000E+00  0.9667E-01  0.9667E-01
     30.068  0.0000E+00  0.0000E+00  0.9667E-01  0.9667E-01
     30.240  0.0000E+00  0.0000E+00  0.9667E-01  0.9667E-01
     30.411  0.0000E+00  0.0000E+00  0.9667E-01  0.9667E-01
     30.583  0.0000E+00  0.0000E+00  0.9667E-01  0.9667E-01
     30.755  0.0000E+00  0.0000E+00  0.9667E-01  0.9667E-01
     30.926  0.0000E+00  0.0000E+00  0.9667E-01  0.9667E-01
     31.098  0.0000E+00  0.0000E+00  0.9667E-01  0.9667E-01
     31.270  0.0000E+00  0.0000E+00  0.9667E-01  0.9667E-01
     31.441  0.0000E+00  0.0000E+00  0.9667E-01  0.9667E-01
     31.613  0.0000E+00  0.0000E+00  0.9667E-01  0.9667E-01
     31.785  0.0000E+00  0.0000E+00  0.9667E-01  0.9667E-01
     31.957  0.0000E+00  0.0000E+00  0.9667E-01  0.9667E-01
