   12   12  300    2
  0.8426606E+01  0.4658842E-09  0.4658842E-09  0.4658842E-09  0.5000000E-15
  1.000000000000000E-004
  CAR 
 Crystal                                 
   32   10   29
 
  0.0000000E+00  0.0000000E+00  0.0000000E+00  0.8000000E-02
   1      -14.637573    -14.637353
   2      -14.341157    -14.340927
   3      -14.341157    -14.340927
   4      -14.341157    -14.340927
   5       -0.775318     -0.775137
   6       -0.775318     -0.775137
   7       -0.775318     -0.775137
   8       -0.520643     -0.520442
   9       -0.520643     -0.520442
  10       -0.520643     -0.520442
  11       -0.520643     -0.520442
  12       -0.520643     -0.520442
  13       -0.520643     -0.520442
  14        0.846927      0.847149
  15        0.846927      0.847149
  16        0.846927      0.847149
  17        5.779475      5.779551
  18        5.779475      5.779551
  19        5.779475      5.779551
  20        5.919329      5.919390
  21       12.653948     12.653947
  22       12.653948     12.653947
  23       12.653948     12.653947
  24       14.192393     14.192327
  25       14.192393     14.192327
  26       14.192393     14.192327
  27       14.192393     14.192327
  28       14.192393     14.192327
  29       14.192393     14.192327
 
  0.2000000E+00 -0.6162976E-32  0.0000000E+00  0.4800000E-01
   1      -14.614234    -14.614013
   2      -14.369458    -14.369228
   3      -14.332930    -14.332700
   4      -14.332930    -14.332700
   5       -0.744609     -0.744425
   6       -0.744609     -0.744425
   7       -0.702265     -0.702081
   8       -0.659329     -0.659132
   9       -0.659329     -0.659132
  10       -0.535576     -0.535376
  11       -0.535576     -0.535376
  12       -0.403358     -0.403155
  13       -0.403358     -0.403155
  14        0.540994      0.541206
  15        0.690118      0.690337
  16        0.690118      0.690337
  17        6.072643      6.072722
  18        6.257749      6.257820
  19        6.368031      6.368114
  20        6.368031      6.368114
  21       12.744830     12.744824
  22       12.744830     12.744824
  23       12.928113     12.928110
  24       13.206445     13.206414
  25       13.206445     13.206414
  26       13.986929     13.986873
  27       13.986929     13.986873
  28       14.295570     14.295509
  29       14.295571     14.295509
 
  0.4000000E+00 -0.1232595E-31  0.0000000E+00  0.4800000E-01
   1      -14.539269    -14.539045
   2      -14.443844    -14.443617
   3      -14.330052    -14.329822
   4      -14.330052    -14.329822
   5       -0.902434     -0.902242
   6       -0.902434     -0.902242
   7       -0.680833     -0.680645
   8       -0.680833     -0.680645
   9       -0.601184     -0.600991
  10       -0.601184     -0.600991
  11       -0.440228     -0.440037
  12       -0.090367     -0.090160
  13       -0.090367     -0.090160
  14        0.011711      0.011910
  15        0.319833      0.320046
  16        0.319833      0.320046
  17        6.653401      6.653483
  18        6.768340      6.768423
  19        7.615308      7.615409
  20        7.615308      7.615409
  21       11.458977     11.458961
  22       11.458977     11.458961
  23       13.037902     13.037883
  24       13.037902     13.037883
  25       13.511043     13.511007
  26       13.511043     13.511007
  27       13.700219     13.699919
  28       14.546664     14.546601
  29       14.546838     14.546747
 
  0.2000000E+00  0.2000000E+00  0.0000000E+00  0.9600000E-01
   1      -14.589310    -14.589088
   2      -14.363017    -14.362787
   3      -14.363017    -14.362787
   4      -14.332996    -14.332766
   5       -0.972040     -0.971850
   6       -0.907847     -0.907662
   7       -0.907847     -0.907662
   8       -0.710892     -0.710707
   9       -0.434595     -0.434394
  10       -0.434595     -0.434394
  11       -0.328922     -0.328722
  12       -0.328922     -0.328722
  13       -0.316830     -0.316625
  14        0.109275      0.109477
  15        0.545812      0.546029
  16        0.773490      0.773713
  17        6.584946      6.585021
  18        6.631148      6.631233
  19        6.631148      6.631233
  20        6.849171      6.849255
  21       12.628204     12.628194
  22       12.765256     12.765239
  23       12.854509     12.854498
  24       12.972819     12.972747
  25       12.972819     12.972747
  26       13.193697     13.193695
  27       14.049874     14.049812
  28       14.089474     14.089420
  29       14.089474     14.089420
 
  0.4000000E+00  0.2000000E+00  0.0000000E+00  0.1920000E+00
   1      -14.518321    -14.518096
   2      -14.429415    -14.429189
   3      -14.348961    -14.348731
   4      -14.337859    -14.337629
   5       -1.212391     -1.212206
   6       -1.174511     -1.174327
   7       -0.817519     -0.817332
   8       -0.627146     -0.626957
   9       -0.522228     -0.522033
  10       -0.446453     -0.446262
  11       -0.252202     -0.252000
  12       -0.228246     -0.228042
  13       -0.141214     -0.141009
  14        0.138812      0.139022
  15        0.227075      0.227286
  16        0.550585      0.550803
  17        7.138768      7.138856
  18        7.142677      7.142761
  19        7.847226      7.847327
  20        7.916877      7.916976
  21       11.367094     11.367077
  22       11.369516     11.369502
  23       12.471957     12.471943
  24       12.571523     12.571517
  25       13.161950     13.161898
  26       13.634929     13.634885
  27       14.221838     14.103655
  28       14.363454     14.221744
  29       14.695637     14.363292
 
  0.4000000E+00  0.4000000E+00  0.0000000E+00  0.9600000E-01
   1      -14.462539    -14.462314
   2      -14.398977    -14.398749
   3      -14.398977    -14.398749
   4      -14.364194    -14.363965
   5       -1.396119     -1.395939
   6       -1.243106     -1.242923
   7       -1.243106     -1.242923
   8       -0.970576     -0.970390
   9       -0.487176     -0.486983
  10       -0.301056     -0.300857
  11       -0.301056     -0.300857
  12       -0.017708     -0.017503
  13        0.119980      0.120193
  14        0.243546      0.243760
  15        0.243546      0.243760
  16        0.558449      0.558670
  17        7.929967      7.930054
  18        8.228170      8.228270
  19        8.228170      8.228270
  20        8.563488      8.563596
  21       10.922741     10.922721
  22       11.243800     11.243778
  23       11.243800     11.243778
  24       11.631315     11.631299
  25       13.488504     13.488472
  26       13.931494     13.931423
  27       13.941467     13.941421
  28       13.941467     13.941421
  29       14.353059     14.353005
 
  0.2000000E+00  0.2000000E+00  0.2000000E+00  0.6400000E-01
   1      -14.562542    -14.562320
   2      -14.358159    -14.357930
   3      -14.358159    -14.357930
   4      -14.358159    -14.357930
   5       -1.145907     -1.145723
   6       -1.145907     -1.145723
   7       -1.145907     -1.145723
   8       -0.363350     -0.363154
   9       -0.363350     -0.363154
  10       -0.363350     -0.363154
  11       -0.280733     -0.280539
  12       -0.225086     -0.224880
  13       -0.225086     -0.224880
  14       -0.225086     -0.224880
  15        0.667487      0.667707
  16        0.667487      0.667707
  17        6.893608      6.893685
  18        7.098630      7.098716
  19        7.098630      7.098716
  20        7.098630      7.098716
  21       12.565077     12.565063
  22       12.583358     12.583338
  23       12.583358     12.583338
  24       12.583358     12.583338
  25       13.061796     13.061786
  26       13.061796     13.061786
  27       13.799295     13.799244
  28       13.799295     13.799244
  29       13.799295     13.799244
 
  0.4000000E+00  0.2000000E+00  0.2000000E+00  0.1920000E+00
   1      -14.499362    -14.499137
   2      -14.423021    -14.422793
   3      -14.352786    -14.352557
   4      -14.352786    -14.352557
   5       -1.412492     -1.412312
   6       -1.412492     -1.412312
   7       -1.141518     -1.141336
   8       -0.813764     -0.813577
   9       -0.322538     -0.322340
  10       -0.322538     -0.322340
  11       -0.112369     -0.112163
  12       -0.112369     -0.112163
  13        0.030668      0.030878
  14        0.129099      0.129307
  15        0.376021      0.376237
  16        0.525392      0.525610
  17        7.477468      7.477549
  18        7.550454      7.550540
  19        8.152830      8.152928
  20        8.152830      8.152928
  21       11.281909     11.281892
  22       11.281909     11.281892
  23       12.261786     12.261803
  24       12.330271     12.330246
  25       13.024241     13.024219
  26       13.322008     13.321973
  27       13.661749     13.650940
  28       13.944532     13.944295
  29       13.944989     13.944426
 
  0.4000000E+00  0.4000000E+00  0.2000000E+00  0.1920000E+00
   1      -14.450679    -14.450453
   2      -14.394778    -14.394550
   3      -14.394778    -14.394550
   4      -14.370595    -14.370366
   5       -1.613597     -1.613420
   6       -1.507350     -1.507171
   7       -1.507350     -1.507171
   8       -1.285479     -1.285298
   9       -0.165081     -0.164879
  10       -0.019645     -0.019439
  11       -0.019645     -0.019439
  12        0.166711      0.166925
  13        0.229450      0.229662
  14        0.258559      0.258773
  15        0.258559      0.258773
  16        0.526416      0.526636
  17        8.220726      8.220808
  18        8.541171      8.541265
  19        8.541171      8.541265
  20        8.835668      8.835772
  21       10.845146     10.845125
  22       11.178891     11.178875
  23       11.178891     11.178875
  24       11.629447     11.629436
  25       13.219312     13.219285
  26       13.483066     13.481186
  27       13.483535     13.481381
  28       13.509676     13.509570
  29       13.986744     13.938456
 
  0.4000000E+00  0.4000000E+00  0.4000000E+00  0.6400000E-01
   1      -14.419744    -14.419518
   2      -14.391988    -14.391760
   3      -14.391988    -14.391760
   4      -14.391988    -14.391760
   5       -1.798141     -1.797966
   6       -1.798141     -1.797966
   7       -1.798141     -1.797966
   8       -1.675046     -1.674870
   9        0.263161      0.263375
  10        0.263161      0.263375
  11        0.263161      0.263375
  12        0.288595      0.288811
  13        0.288595      0.288811
  14        0.288595      0.288811
  15        0.433864      0.434083
  16        0.433864      0.434083
  17        8.938410      8.938483
  18        9.326261      9.326361
  19        9.326261      9.326361
  20        9.326261      9.326361
  21       10.737921     10.737907
  22       10.737921     10.737907
  23       10.737921     10.737907
  24       11.296893     11.296898
  25       12.892999     12.892972
  26       12.893040     12.893001
  27       12.955759     12.955726
  28       12.955763     12.955727
  29       12.955776     12.955887
