 running on    1 total cores
 distrk:  each k-point on    1 cores,    1 groups
 distr:  one band on    1 cores,    1 groups
 using from now: INCAR     
 vasp.5.3.3 18Dez12 (build Sep  7 2015 22:32:56) complex                        
  
 POSCAR found type information on POSCAR  Li O 
 POSCAR found :  2 types and      12 ions
 LDA part: xc-table for Pade appr. of Perdew
 POSCAR, INCAR and KPOINTS ok, starting setup
 WARNING: small aliasing (wrap around) errors must be expected
 FFT: planning ...
 WAVECAR not read
 entering main loop
       N       E                     dE             d eps       ncg     rms          rms(c)
DAV:   1     0.978492169099E+02    0.97849E+02   -0.11674E+04  1160   0.704E+02
DAV:   2    -0.496073876679E+02   -0.14746E+03   -0.13838E+03  1463   0.180E+02
DAV:   3    -0.579879287679E+02   -0.83805E+01   -0.83341E+01  1464   0.440E+01
DAV:   4    -0.580365089285E+02   -0.48580E-01   -0.48538E-01  1579   0.368E+00
DAV:   5    -0.580368306551E+02   -0.32173E-03   -0.32169E-03  1394   0.296E-01
DAV:   6    -0.580368337102E+02   -0.30552E-05   -0.30544E-05  1484   0.267E-02
DAV:   7    -0.580368337577E+02   -0.47427E-07   -0.47366E-07  1070   0.378E-03
DAV:   8    -0.580368337629E+02   -0.52034E-08   -0.53294E-08  1079   0.110E-03
DAV:   9    -0.580368337640E+02   -0.10784E-08   -0.10402E-08   803   0.453E-04
DAV:  10    -0.580368337643E+02   -0.34356E-09   -0.21633E-09   865   0.202E-04    0.220E+01
RMM:  11    -0.575397760820E+02    0.49706E+00   -0.19944E+01  1160   0.183E+01    0.692E+00
RMM:  12    -0.574855576722E+02    0.54218E-01   -0.47339E-01  1160   0.331E+00    0.317E+00
RMM:  13    -0.574435205501E+02    0.42037E-01   -0.13934E-01  1160   0.275E+00    0.910E-01
RMM:  14    -0.574450447614E+02   -0.15242E-02   -0.27086E-02  1160   0.925E-01    0.395E-01
RMM:  15    -0.574447684958E+02    0.27627E-03   -0.42510E-03  1160   0.267E-01    0.152E-01
RMM:  16    -0.574454517786E+02   -0.68328E-03   -0.57029E-04  1160   0.108E-01    0.767E-02
RMM:  17    -0.574457891411E+02   -0.33736E-03   -0.33968E-04  1160   0.101E-01    0.293E-02
RMM:  18    -0.574457784611E+02    0.10680E-04   -0.21525E-05   893   0.225E-02    0.123E-02
RMM:  19    -0.574457833507E+02   -0.48896E-05   -0.54909E-05   999   0.318E-02
   1 F= -.57445783E+02 E0= -.57445881E+02  d E =-.574458E+02  mag=     0.0004
 curvature:   0.00 expect dE= 0.000E+00 dE for cont linesearch  0.000E+00
 trial: gam= 0.00000 g(F)=  0.411E-59 g(S)=  0.000E+00 ort = 0.000E+00 (trialstep = 0.100E+01)
 search vector abs. value=  0.100E-09
 reached required accuracy - stopping structural energy minimisation
