 vasp.5.3.3 18Dez12 (build Sep  7 2015 22:32:56) complex                        
  
 executed on             LinuxIFC date 2022.12.22  15:26:16
 running on    1 total cores
 distrk:  each k-point on    1 cores,    1 groups
 distr:  one band on NCORES_PER_BAND=   1 cores,    1 groups


--------------------------------------------------------------------------------------------------------


 INCAR:
 POTCAR:    PAW_PBE Li 17Jan2003                  
 POTCAR:    PAW_PBE O 08Apr2002                   
 POTCAR:    PAW_PBE Li 17Jan2003                  
   VRHFIN =Li: s1p0                                                             
   LEXCH  = PE                                                                  
   EATOM  =     5.3001 eV,    0.3895 Ry                                         
                                                                                
   TITEL  = PAW_PBE Li 17Jan2003                                                
   LULTRA =        F    use ultrasoft PP ?                                      
   IUNSCR =        1    unscreen: 0-lin 1-nonlin 2-no                           
   RPACOR =    1.500    partial core radius                                     
   POMASS =    7.010; ZVAL   =    1.000    mass and valenz                      
   RCORE  =    2.050    outmost cutoff radius                                   
   RWIGS  =    2.600; RWIGS  =    1.376    wigner-seitz radius (au A)           
   ENMAX  =  140.000; ENMIN  =  100.000 eV                                      
   ICORE  =        2    local potential                                         
   LCOR   =        T    correct aug charges                                     
   LPAW   =        T    paw PP                                                  
   EAUG   =  331.638                                                            
   DEXC   =    0.000                                                            
   RMAX   =    2.098    core radius for proj-oper                               
   RAUG   =    1.300    factor for augmentation sphere                          
   RDEP   =    2.094    radius for radial grids                                 
   RDEPT  =    1.810    core radius for aug-charge                              
                                                                                
   Atomic configuration                                                         
    4 entries                                                                   
     n  l   j            E        occ.                                          
     1  0  0.50       -51.8549   2.0000                                         
     2  0  0.50        -2.8742   1.0000                                         
     2  1  0.50        -1.3606   0.0000                                         
     3  2  1.50        -1.3606   0.0000                                         
   Description                                                                  
     l       E           TYP  RCUT    TYP  RCUT                                 
     0     -2.8742052     23  2.050                                             
     0     27.2116520     23  2.050                                             
     1     -1.3605826     23  2.050                                             
     2     -1.3605826     23  2.050                                             
  local pseudopotential read in
  partial core-charges read in
  partial kinetic energy density read in
  atomic valenz-charges read in
  non local Contribution for L=           0  read in
    real space projection operators read in
  non local Contribution for L=           0  read in
    real space projection operators read in
  non local Contribution for L=           1  read in
    real space projection operators read in
    PAW grid and wavefunctions read in
 
   number of l-projection  operators is LMAX  =           3
   number of lm-projection operators is LMMAX =           5
 
 POTCAR:    PAW_PBE O 08Apr2002                   
   VRHFIN =O: s2p4                                                              
   LEXCH  = PE                                                                  
   EATOM  =   432.3788 eV,   31.7789 Ry                                         
                                                                                
   TITEL  = PAW_PBE O 08Apr2002                                                 
   LULTRA =        F    use ultrasoft PP ?                                      
   IUNSCR =        1    unscreen: 0-lin 1-nonlin 2-no                           
   RPACOR =    1.200    partial core radius                                     
   POMASS =   16.000; ZVAL   =    6.000    mass and valenz                      
   RCORE  =    1.520    outmost cutoff radius                                   
   RWIGS  =    1.550; RWIGS  =    0.820    wigner-seitz radius (au A)           
   ENMAX  =  400.000; ENMIN  =  300.000 eV                                      
   ICORE  =        2    local potential                                         
   LCOR   =        T    correct aug charges                                     
   LPAW   =        T    paw PP                                                  
   EAUG   =  605.392                                                            
   DEXC   =    0.000                                                            
   RMAX   =    1.553    core radius for proj-oper                               
   RAUG   =    1.300    factor for augmentation sphere                          
   RDEP   =    1.550    radius for radial grids                                 
   RDEPT  =    1.329    core radius for aug-charge                              
                                                                                
   Atomic configuration                                                         
    4 entries                                                                   
     n  l   j            E        occ.                                          
     1  0  0.50      -514.6923   2.0000                                         
     2  0  0.50       -23.9615   2.0000                                         
     2  1  0.50        -9.0305   4.0000                                         
     3  2  1.50        -9.5241   0.0000                                         
   Description                                                                  
     l       E           TYP  RCUT    TYP  RCUT                                 
     0    -23.9615318     23  1.200                                             
     0     -9.5240782     23  1.200                                             
     1     -9.0304911     23  1.520                                             
     1      8.1634956     23  1.520                                             
     2     -9.5240782      7  1.500                                             
  local pseudopotential read in
  partial core-charges read in
  partial kinetic energy density read in
  kinetic energy density of atom read in
  atomic valenz-charges read in
  non local Contribution for L=           0  read in
    real space projection operators read in
  non local Contribution for L=           0  read in
    real space projection operators read in
  non local Contribution for L=           1  read in
    real space projection operators read in
  non local Contribution for L=           1  read in
    real space projection operators read in
    PAW grid and wavefunctions read in
 
   number of l-projection  operators is LMAX  =           4
   number of lm-projection operators is LMMAX =           8
 
  PAW_PBE Li 17Jan2003                  :
 energy of atom  1       EATOM=   -5.3001
 kinetic energy error for atom=    0.0000 (will be added to EATOM!!)
  PAW_PBE O 08Apr2002                   :
 energy of atom  2       EATOM= -432.3788
 kinetic energy error for atom=    0.3782 (will be added to EATOM!!)
 
 
 POSCAR: Li2 O                                   
  positions in direct lattice
  No initial velocities read in
 exchange correlation table for  LEXCH =        8
   RHO(1)=    0.500       N(1)  =     2000
   RHO(2)=  100.500       N(2)  =     4000
 


--------------------------------------------------------------------------------------------------------


 ion  position               nearest neighbor table
   1  0.250  0.250  0.750-  10 2.02  11 2.02   9 2.02  12 2.02   4 2.33   8 2.33   2 2.33   4 2.33
                             2 2.33   8 2.33   7 3.29   7 3.29   3 3.29   3 3.29   3 3.29   3 3.29
   2  0.250  0.750  0.750-   9 2.02  12 2.02  11 2.02  10 2.02   3 2.33   7 2.33   1 2.33   3 2.33
                             1 2.33   7 2.33   8 3.29   8 3.29   4 3.29   4 3.29   6 3.29   4 3.29
   3  0.250  0.750  0.250-   9 2.02  12 2.02  11 2.02  10 2.02   4 2.33   6 2.33   2 2.33   2 2.33
                             4 2.33   6 2.33   5 3.29   5 3.29   1 3.29   7 3.29   1 3.29   1 3.29
   4  0.250  0.250  0.250-  10 2.02  11 2.02   9 2.02  12 2.02   3 2.33   5 2.33   1 2.33   1 2.33
                             3 2.33   5 2.33   6 3.29   6 3.29   2 3.29   8 3.29   2 3.29   2 3.29
   5  0.750  0.250  0.250-   9 2.02  12 2.02  11 2.02  10 2.02   6 2.33   8 2.33   4 2.33   8 2.33
                             6 2.33   4 2.33   3 3.29   3 3.29   1 3.29   1 3.29   7 3.29   7 3.29
   6  0.750  0.750  0.250-  10 2.02  11 2.02   9 2.02  12 2.02   5 2.33   7 2.33   3 2.33   7 2.33
                             5 2.33   3 2.33   4 3.29   4 3.29   8 3.29   2 3.29   8 3.29   8 3.29
   7  0.750  0.750  0.750-  10 2.02  11 2.02   9 2.02  12 2.02   6 2.33   8 2.33   2 2.33   6 2.33
                             8 2.33   2 2.33   1 3.29   1 3.29   5 3.29   5 3.29   3 3.29   5 3.29
   8  0.750  0.250  0.750-   9 2.02  12 2.02  11 2.02  10 2.02   5 2.33   7 2.33   1 2.33   5 2.33
                             7 2.33   1 2.33   2 3.29   2 3.29   4 3.29   6 3.29   4 3.29   6 3.29
   9  0.000  0.000  0.000-   2 2.02   3 2.02   5 2.02   8 2.02   1 2.02   6 2.02   7 2.02   4 2.02

  10  0.000  0.500  0.500-   1 2.02   4 2.02   6 2.02   7 2.02   5 2.02   3 2.02   2 2.02   8 2.02

  11  0.500  0.000  0.500-   1 2.02   4 2.02   6 2.02   7 2.02   5 2.02   3 2.02   2 2.02   8 2.02

  12  0.500  0.500  0.000-   2 2.02   3 2.02   5 2.02   8 2.02   1 2.02   6 2.02   7 2.02   4 2.02

 
  LATTYP: Found a simple cubic cell.
 ALAT       =     4.6588420000
  
  Lattice vectors:
  
 A1 = (   4.6588420000,   0.0000000000,   0.0000000000)
 A2 = (   0.0000000000,   4.6588420000,   0.0000000000)
 A3 = (   0.0000000000,   0.0000000000,   4.6588420000)


Analysis of symmetry for initial positions (statically):
=====================================================================
 Subroutine PRICEL returns following result:
 
  LATTYP: Found a face centered cubic cell.
 ALAT       =     4.6588420000
  
  Lattice vectors:
  
 A1 = (   2.3294210000,   2.3294210000,   0.0000000000)
 A2 = (   2.3294210000,   0.0000000000,  -2.3294210000)
 A3 = (   0.0000000000,   2.3294210000,  -2.3294210000)
 
   4 primitive cells build up your supercell.
 

 Routine SETGRP: Setting up the symmetry group for a 
 simple cubic supercell.


 Subroutine GETGRP returns: Found 48 space group operations
 (whereof 48 operations were pure point group operations)
 out of a pool of 48 trial point group operations.


The static configuration has the point symmetry O_h .


Analysis of symmetry for dynamics (positions and initial velocities):
=====================================================================
 Subroutine PRICEL returns following result:
 
  LATTYP: Found a face centered cubic cell.
 ALAT       =     4.6588420000
  
  Lattice vectors:
  
 A1 = (   2.3294210000,   2.3294210000,   0.0000000000)
 A2 = (   2.3294210000,   0.0000000000,  -2.3294210000)
 A3 = (   0.0000000000,   2.3294210000,  -2.3294210000)
 
   4 primitive cells build up your supercell.
 

 Routine SETGRP: Setting up the symmetry group for a 
 simple cubic supercell.


 Subroutine GETGRP returns: Found 48 space group operations
 (whereof 48 operations were pure point group operations)
 out of a pool of 48 trial point group operations.


The dynamic configuration has the point symmetry O_h .


Analysis of constrained symmetry for selective dynamics:
=====================================================================
 Subroutine PRICEL returns following result:
 
  LATTYP: Found a face centered cubic cell.
 ALAT       =     4.6588420000
  
  Lattice vectors:
  
 A1 = (   2.3294210000,   2.3294210000,   0.0000000000)
 A2 = (   2.3294210000,   0.0000000000,  -2.3294210000)
 A3 = (   0.0000000000,   2.3294210000,  -2.3294210000)
 
   4 primitive cells build up your supercell.
 

 Routine SETGRP: Setting up the symmetry group for a 
 simple cubic supercell.


 Subroutine GETGRP returns: Found 48 space group operations
 (whereof 48 operations were pure point group operations)
 out of a pool of 48 trial point group operations.


The constrained configuration has the point symmetry O_h .


Analysis of magnetic symmetry:
=====================================================================

 Subroutine MAGSYM returns: Found 48 space group operations
 (whereof 48 operations were pure point group operations)
 out of a pool of 48 trial space group operations
 (whereof 48 operations were pure point group operations)
 and found also     4 'primitive' translations


The magnetic configuration has the point symmetry O_h .


 irot  :   1
 --------------------------------------------------------------------
 isymop:   1   0   0
           0   1   0
           0   0   1

 gtrans:     0.0000000     0.0000000     0.0000000

 ptrans:     0.0000000     0.0000000     0.0000000
 rotmap:
 (   1->   1)  (   2->   2)  (   3->   3)  (   4->   4)  (   5->   5) 
 (   6->   6)  (   7->   7)  (   8->   8)  (   9->   9)  (  10->  10) 
 (  11->  11)  (  12->  12) 

 ptrans:     0.5000000     0.5000000     0.0000000
 rotmap:
 (   1->   7)  (   2->   8)  (   3->   5)  (   4->   6)  (   5->   3) 
 (   6->   4)  (   7->   1)  (   8->   2)  (   9->  12)  (  10->  11) 
 (  11->  10)  (  12->   9) 

 ptrans:     0.5000000     0.0000000     0.5000000
 rotmap:
 (   1->   5)  (   2->   6)  (   3->   7)  (   4->   8)  (   5->   1) 
 (   6->   2)  (   7->   3)  (   8->   4)  (   9->  11)  (  10->  12) 
 (  11->   9)  (  12->  10) 

 ptrans:     0.0000000     0.5000000     0.5000000
 rotmap:
 (   1->   3)  (   2->   4)  (   3->   1)  (   4->   2)  (   5->   7) 
 (   6->   8)  (   7->   5)  (   8->   6)  (   9->  10)  (  10->   9) 
 (  11->  12)  (  12->  11) 


 irot  :   2
 --------------------------------------------------------------------
 isymop:  -1   0   0
           0  -1   0
           0   0  -1

 gtrans:     0.0000000     0.0000000     0.0000000

 ptrans:     0.0000000     0.0000000     0.0000000
 rotmap:
 (   1->   6)  (   2->   5)  (   3->   8)  (   4->   7)  (   5->   2) 
 (   6->   1)  (   7->   4)  (   8->   3)  (   9->   9)  (  10->  10) 
 (  11->  11)  (  12->  12) 

 ptrans:     0.5000000     0.5000000     0.0000000
 rotmap:
 (   1->   4)  (   2->   3)  (   3->   2)  (   4->   1)  (   5->   8) 
 (   6->   7)  (   7->   6)  (   8->   5)  (   9->  12)  (  10->  11) 
 (  11->  10)  (  12->   9) 

 ptrans:     0.5000000     0.0000000     0.5000000
 rotmap:
 (   1->   2)  (   2->   1)  (   3->   4)  (   4->   3)  (   5->   6) 
 (   6->   5)  (   7->   8)  (   8->   7)  (   9->  11)  (  10->  12) 
 (  11->   9)  (  12->  10) 

 ptrans:     0.0000000     0.5000000     0.5000000
 rotmap:
 (   1->   8)  (   2->   7)  (   3->   6)  (   4->   5)  (   5->   4) 
 (   6->   3)  (   7->   2)  (   8->   1)  (   9->  10)  (  10->   9) 
 (  11->  12)  (  12->  11) 


 irot  :   3
 --------------------------------------------------------------------
 isymop:   0   0   1
           1   0   0
           0   1   0

 gtrans:     0.0000000     0.0000000     0.0000000

 ptrans:     0.0000000     0.0000000     0.0000000
 rotmap:
 (   1->   5)  (   2->   8)  (   3->   1)  (   4->   4)  (   5->   3) 
 (   6->   2)  (   7->   7)  (   8->   6)  (   9->   9)  (  10->  11) 
 (  11->  12)  (  12->  10) 

 ptrans:     0.5000000     0.5000000     0.0000000
 rotmap:
 (   1->   3)  (   2->   2)  (   3->   7)  (   4->   6)  (   5->   5) 
 (   6->   8)  (   7->   1)  (   8->   4)  (   9->  12)  (  10->  10) 
 (  11->   9)  (  12->  11) 

 ptrans:     0.5000000     0.0000000     0.5000000
 rotmap:
 (   1->   1)  (   2->   4)  (   3->   5)  (   4->   8)  (   5->   7) 
 (   6->   6)  (   7->   3)  (   8->   2)  (   9->  11)  (  10->   9) 
 (  11->  10)  (  12->  12) 

 ptrans:     0.0000000     0.5000000     0.5000000
 rotmap:
 (   1->   7)  (   2->   6)  (   3->   3)  (   4->   2)  (   5->   1) 
 (   6->   4)  (   7->   5)  (   8->   8)  (   9->  10)  (  10->  12) 
 (  11->  11)  (  12->   9) 


 irot  :   4
 --------------------------------------------------------------------
 isymop:   0   0  -1
          -1   0   0
           0  -1   0

 gtrans:     0.0000000     0.0000000     0.0000000

 ptrans:     0.0000000     0.0000000     0.0000000
 rotmap:
 (   1->   2)  (   2->   3)  (   3->   6)  (   4->   7)  (   5->   8) 
 (   6->   5)  (   7->   4)  (   8->   1)  (   9->   9)  (  10->  11) 
 (  11->  12)  (  12->  10) 

 ptrans:     0.5000000     0.5000000     0.0000000
 rotmap:
 (   1->   8)  (   2->   5)  (   3->   4)  (   4->   1)  (   5->   2) 
 (   6->   3)  (   7->   6)  (   8->   7)  (   9->  12)  (  10->  10) 
 (  11->   9)  (  12->  11) 

 ptrans:     0.5000000     0.0000000     0.5000000
 rotmap:
 (   1->   6)  (   2->   7)  (   3->   2)  (   4->   3)  (   5->   4) 
 (   6->   1)  (   7->   8)  (   8->   5)  (   9->  11)  (  10->   9) 
 (  11->  10)  (  12->  12) 

 ptrans:     0.0000000     0.5000000     0.5000000
 rotmap:
 (   1->   4)  (   2->   1)  (   3->   8)  (   4->   5)  (   5->   6) 
 (   6->   7)  (   7->   2)  (   8->   3)  (   9->  10)  (  10->  12) 
 (  11->  11)  (  12->   9) 


 irot  :   5
 --------------------------------------------------------------------
 isymop:   0   1   0
           0   0   1
           1   0   0

 gtrans:     0.0000000     0.0000000     0.0000000

 ptrans:     0.0000000     0.0000000     0.0000000
 rotmap:
 (   1->   3)  (   2->   6)  (   3->   5)  (   4->   4)  (   5->   1) 
 (   6->   8)  (   7->   7)  (   8->   2)  (   9->   9)  (  10->  12) 
 (  11->  10)  (  12->  11) 

 ptrans:     0.5000000     0.5000000     0.0000000
 rotmap:
 (   1->   5)  (   2->   4)  (   3->   3)  (   4->   6)  (   5->   7) 
 (   6->   2)  (   7->   1)  (   8->   8)  (   9->  12)  (  10->   9) 
 (  11->  11)  (  12->  10) 

 ptrans:     0.5000000     0.0000000     0.5000000
 rotmap:
 (   1->   7)  (   2->   2)  (   3->   1)  (   4->   8)  (   5->   5) 
 (   6->   4)  (   7->   3)  (   8->   6)  (   9->  11)  (  10->  10) 
 (  11->  12)  (  12->   9) 

 ptrans:     0.0000000     0.5000000     0.5000000
 rotmap:
 (   1->   1)  (   2->   8)  (   3->   7)  (   4->   2)  (   5->   3) 
 (   6->   6)  (   7->   5)  (   8->   4)  (   9->  10)  (  10->  11) 
 (  11->   9)  (  12->  12) 


 irot  :   6
 --------------------------------------------------------------------
 isymop:   0  -1   0
           0   0  -1
          -1   0   0

 gtrans:     0.0000000     0.0000000     0.0000000

 ptrans:     0.0000000     0.0000000     0.0000000
 rotmap:
 (   1->   8)  (   2->   1)  (   3->   2)  (   4->   7)  (   5->   6) 
 (   6->   3)  (   7->   4)  (   8->   5)  (   9->   9)  (  10->  12) 
 (  11->  10)  (  12->  11) 

 ptrans:     0.5000000     0.5000000     0.0000000
 rotmap:
 (   1->   2)  (   2->   7)  (   3->   8)  (   4->   1)  (   5->   4) 
 (   6->   5)  (   7->   6)  (   8->   3)  (   9->  12)  (  10->   9) 
 (  11->  11)  (  12->  10) 

 ptrans:     0.5000000     0.0000000     0.5000000
 rotmap:
 (   1->   4)  (   2->   5)  (   3->   6)  (   4->   3)  (   5->   2) 
 (   6->   7)  (   7->   8)  (   8->   1)  (   9->  11)  (  10->  10) 
 (  11->  12)  (  12->   9) 

 ptrans:     0.0000000     0.5000000     0.5000000
 rotmap:
 (   1->   6)  (   2->   3)  (   3->   4)  (   4->   5)  (   5->   8) 
 (   6->   1)  (   7->   2)  (   8->   7)  (   9->  10)  (  10->  11) 
 (  11->   9)  (  12->  12) 


 irot  :   7
 --------------------------------------------------------------------
 isymop:   0  -1   0
           1   0   0
           0   0   1

 gtrans:     0.0000000     0.0000000     0.0000000

 ptrans:     0.0000000     0.0000000     0.0000000
 rotmap:
 (   1->   8)  (   2->   1)  (   3->   4)  (   4->   5)  (   5->   6) 
 (   6->   3)  (   7->   2)  (   8->   7)  (   9->   9)  (  10->  11) 
 (  11->  10)  (  12->  12) 

 ptrans:     0.5000000     0.5000000     0.0000000
 rotmap:
 (   1->   2)  (   2->   7)  (   3->   6)  (   4->   3)  (   5->   4) 
 (   6->   5)  (   7->   8)  (   8->   1)  (   9->  12)  (  10->  10) 
 (  11->  11)  (  12->   9) 

 ptrans:     0.5000000     0.0000000     0.5000000
 rotmap:
 (   1->   4)  (   2->   5)  (   3->   8)  (   4->   1)  (   5->   2) 
 (   6->   7)  (   7->   6)  (   8->   3)  (   9->  11)  (  10->   9) 
 (  11->  12)  (  12->  10) 

 ptrans:     0.0000000     0.5000000     0.5000000
 rotmap:
 (   1->   6)  (   2->   3)  (   3->   2)  (   4->   7)  (   5->   8) 
 (   6->   1)  (   7->   4)  (   8->   5)  (   9->  10)  (  10->  12) 
 (  11->   9)  (  12->  11) 


 irot  :   8
 --------------------------------------------------------------------
 isymop:   0   1   0
          -1   0   0
           0   0  -1

 gtrans:     0.0000000     0.0000000     0.0000000

 ptrans:     0.0000000     0.0000000     0.0000000
 rotmap:
 (   1->   3)  (   2->   6)  (   3->   7)  (   4->   2)  (   5->   1) 
 (   6->   8)  (   7->   5)  (   8->   4)  (   9->   9)  (  10->  11) 
 (  11->  10)  (  12->  12) 

 ptrans:     0.5000000     0.5000000     0.0000000
 rotmap:
 (   1->   5)  (   2->   4)  (   3->   1)  (   4->   8)  (   5->   7) 
 (   6->   2)  (   7->   3)  (   8->   6)  (   9->  12)  (  10->  10) 
 (  11->  11)  (  12->   9) 

 ptrans:     0.5000000     0.0000000     0.5000000
 rotmap:
 (   1->   7)  (   2->   2)  (   3->   3)  (   4->   6)  (   5->   5) 
 (   6->   4)  (   7->   1)  (   8->   8)  (   9->  11)  (  10->   9) 
 (  11->  12)  (  12->  10) 

 ptrans:     0.0000000     0.5000000     0.5000000
 rotmap:
 (   1->   1)  (   2->   8)  (   3->   5)  (   4->   4)  (   5->   3) 
 (   6->   6)  (   7->   7)  (   8->   2)  (   9->  10)  (  10->  12) 
 (  11->   9)  (  12->  11) 


 irot  :   9
 --------------------------------------------------------------------
 isymop:  -1   0   0
           0   0   1
           0   1   0

 gtrans:     0.0000000     0.0000000     0.0000000

 ptrans:     0.0000000     0.0000000     0.0000000
 rotmap:
 (   1->   6)  (   2->   7)  (   3->   8)  (   4->   5)  (   5->   4) 
 (   6->   1)  (   7->   2)  (   8->   3)  (   9->   9)  (  10->  10) 
 (  11->  12)  (  12->  11) 

 ptrans:     0.5000000     0.5000000     0.0000000
 rotmap:
 (   1->   4)  (   2->   1)  (   3->   2)  (   4->   3)  (   5->   6) 
 (   6->   7)  (   7->   8)  (   8->   5)  (   9->  12)  (  10->  11) 
 (  11->   9)  (  12->  10) 

 ptrans:     0.5000000     0.0000000     0.5000000
 rotmap:
 (   1->   2)  (   2->   3)  (   3->   4)  (   4->   1)  (   5->   8) 
 (   6->   5)  (   7->   6)  (   8->   7)  (   9->  11)  (  10->  12) 
 (  11->  10)  (  12->   9) 

 ptrans:     0.0000000     0.5000000     0.5000000
 rotmap:
 (   1->   8)  (   2->   5)  (   3->   6)  (   4->   7)  (   5->   2) 
 (   6->   3)  (   7->   4)  (   8->   1)  (   9->  10)  (  10->   9) 
 (  11->  11)  (  12->  12) 


 irot  :  10
 --------------------------------------------------------------------
 isymop:   1   0   0
           0   0  -1
           0  -1   0

 gtrans:     0.0000000     0.0000000     0.0000000

 ptrans:     0.0000000     0.0000000     0.0000000
 rotmap:
 (   1->   1)  (   2->   4)  (   3->   3)  (   4->   2)  (   5->   7) 
 (   6->   6)  (   7->   5)  (   8->   8)  (   9->   9)  (  10->  10) 
 (  11->  12)  (  12->  11) 

 ptrans:     0.5000000     0.5000000     0.0000000
 rotmap:
 (   1->   7)  (   2->   6)  (   3->   5)  (   4->   8)  (   5->   1) 
 (   6->   4)  (   7->   3)  (   8->   2)  (   9->  12)  (  10->  11) 
 (  11->   9)  (  12->  10) 

 ptrans:     0.5000000     0.0000000     0.5000000
 rotmap:
 (   1->   5)  (   2->   8)  (   3->   7)  (   4->   6)  (   5->   3) 
 (   6->   2)  (   7->   1)  (   8->   4)  (   9->  11)  (  10->  12) 
 (  11->  10)  (  12->   9) 

 ptrans:     0.0000000     0.5000000     0.5000000
 rotmap:
 (   1->   3)  (   2->   2)  (   3->   1)  (   4->   4)  (   5->   5) 
 (   6->   8)  (   7->   7)  (   8->   6)  (   9->  10)  (  10->   9) 
 (  11->  11)  (  12->  12) 


 irot  :  11
 --------------------------------------------------------------------
 isymop:   0   0  -1
           0   1   0
           1   0   0

 gtrans:     0.0000000     0.0000000     0.0000000

 ptrans:     0.0000000     0.0000000     0.0000000
 rotmap:
 (   1->   4)  (   2->   3)  (   3->   6)  (   4->   5)  (   5->   8) 
 (   6->   7)  (   7->   2)  (   8->   1)  (   9->   9)  (  10->  12) 
 (  11->  11)  (  12->  10) 

 ptrans:     0.5000000     0.5000000     0.0000000
 rotmap:
 (   1->   6)  (   2->   5)  (   3->   4)  (   4->   3)  (   5->   2) 
 (   6->   1)  (   7->   8)  (   8->   7)  (   9->  12)  (  10->   9) 
 (  11->  10)  (  12->  11) 

 ptrans:     0.5000000     0.0000000     0.5000000
 rotmap:
 (   1->   8)  (   2->   7)  (   3->   2)  (   4->   1)  (   5->   4) 
 (   6->   3)  (   7->   6)  (   8->   5)  (   9->  11)  (  10->  10) 
 (  11->   9)  (  12->  12) 

 ptrans:     0.0000000     0.5000000     0.5000000
 rotmap:
 (   1->   2)  (   2->   1)  (   3->   8)  (   4->   7)  (   5->   6) 
 (   6->   5)  (   7->   4)  (   8->   3)  (   9->  10)  (  10->  11) 
 (  11->  12)  (  12->   9) 


 irot  :  12
 --------------------------------------------------------------------
 isymop:   0   0   1
           0  -1   0
          -1   0   0

 gtrans:     0.0000000     0.0000000     0.0000000

 ptrans:     0.0000000     0.0000000     0.0000000
 rotmap:
 (   1->   7)  (   2->   8)  (   3->   1)  (   4->   2)  (   5->   3) 
 (   6->   4)  (   7->   5)  (   8->   6)  (   9->   9)  (  10->  12) 
 (  11->  11)  (  12->  10) 

 ptrans:     0.5000000     0.5000000     0.0000000
 rotmap:
 (   1->   1)  (   2->   2)  (   3->   7)  (   4->   8)  (   5->   5) 
 (   6->   6)  (   7->   3)  (   8->   4)  (   9->  12)  (  10->   9) 
 (  11->  10)  (  12->  11) 

 ptrans:     0.5000000     0.0000000     0.5000000
 rotmap:
 (   1->   3)  (   2->   4)  (   3->   5)  (   4->   6)  (   5->   7) 
 (   6->   8)  (   7->   1)  (   8->   2)  (   9->  11)  (  10->  10) 
 (  11->   9)  (  12->  12) 

 ptrans:     0.0000000     0.5000000     0.5000000
 rotmap:
 (   1->   5)  (   2->   6)  (   3->   3)  (   4->   4)  (   5->   1) 
 (   6->   2)  (   7->   7)  (   8->   8)  (   9->  10)  (  10->  11) 
 (  11->  12)  (  12->   9) 


 irot  :  13
 --------------------------------------------------------------------
 isymop:  -1   0   0
           0  -1   0
           0   0   1

 gtrans:     0.0000000     0.0000000     0.0000000

 ptrans:     0.0000000     0.0000000     0.0000000
 rotmap:
 (   1->   7)  (   2->   8)  (   3->   5)  (   4->   6)  (   5->   3) 
 (   6->   4)  (   7->   1)  (   8->   2)  (   9->   9)  (  10->  10) 
 (  11->  11)  (  12->  12) 

 ptrans:     0.5000000     0.5000000     0.0000000
 rotmap:
 (   1->   1)  (   2->   2)  (   3->   3)  (   4->   4)  (   5->   5) 
 (   6->   6)  (   7->   7)  (   8->   8)  (   9->  12)  (  10->  11) 
 (  11->  10)  (  12->   9) 

 ptrans:     0.5000000     0.0000000     0.5000000
 rotmap:
 (   1->   3)  (   2->   4)  (   3->   1)  (   4->   2)  (   5->   7) 
 (   6->   8)  (   7->   5)  (   8->   6)  (   9->  11)  (  10->  12) 
 (  11->   9)  (  12->  10) 

 ptrans:     0.0000000     0.5000000     0.5000000
 rotmap:
 (   1->   5)  (   2->   6)  (   3->   7)  (   4->   8)  (   5->   1) 
 (   6->   2)  (   7->   3)  (   8->   4)  (   9->  10)  (  10->   9) 
 (  11->  12)  (  12->  11) 


 irot  :  14
 --------------------------------------------------------------------
 isymop:   1   0   0
           0   1   0
           0   0  -1

 gtrans:     0.0000000     0.0000000     0.0000000

 ptrans:     0.0000000     0.0000000     0.0000000
 rotmap:
 (   1->   4)  (   2->   3)  (   3->   2)  (   4->   1)  (   5->   8) 
 (   6->   7)  (   7->   6)  (   8->   5)  (   9->   9)  (  10->  10) 
 (  11->  11)  (  12->  12) 

 ptrans:     0.5000000     0.5000000     0.0000000
 rotmap:
 (   1->   6)  (   2->   5)  (   3->   8)  (   4->   7)  (   5->   2) 
 (   6->   1)  (   7->   4)  (   8->   3)  (   9->  12)  (  10->  11) 
 (  11->  10)  (  12->   9) 

 ptrans:     0.5000000     0.0000000     0.5000000
 rotmap:
 (   1->   8)  (   2->   7)  (   3->   6)  (   4->   5)  (   5->   4) 
 (   6->   3)  (   7->   2)  (   8->   1)  (   9->  11)  (  10->  12) 
 (  11->   9)  (  12->  10) 

 ptrans:     0.0000000     0.5000000     0.5000000
 rotmap:
 (   1->   2)  (   2->   1)  (   3->   4)  (   4->   3)  (   5->   6) 
 (   6->   5)  (   7->   8)  (   8->   7)  (   9->  10)  (  10->   9) 
 (  11->  12)  (  12->  11) 


 irot  :  15
 --------------------------------------------------------------------
 isymop:   0   0  -1
          -1   0   0
           0   1   0

 gtrans:     0.0000000     0.0000000     0.0000000

 ptrans:     0.0000000     0.0000000     0.0000000
 rotmap:
 (   1->   3)  (   2->   2)  (   3->   7)  (   4->   6)  (   5->   5) 
 (   6->   8)  (   7->   1)  (   8->   4)  (   9->   9)  (  10->  11) 
 (  11->  12)  (  12->  10) 

 ptrans:     0.5000000     0.5000000     0.0000000
 rotmap:
 (   1->   5)  (   2->   8)  (   3->   1)  (   4->   4)  (   5->   3) 
 (   6->   2)  (   7->   7)  (   8->   6)  (   9->  12)  (  10->  10) 
 (  11->   9)  (  12->  11) 

 ptrans:     0.5000000     0.0000000     0.5000000
 rotmap:
 (   1->   7)  (   2->   6)  (   3->   3)  (   4->   2)  (   5->   1) 
 (   6->   4)  (   7->   5)  (   8->   8)  (   9->  11)  (  10->   9) 
 (  11->  10)  (  12->  12) 

 ptrans:     0.0000000     0.5000000     0.5000000
 rotmap:
 (   1->   1)  (   2->   4)  (   3->   5)  (   4->   8)  (   5->   7) 
 (   6->   6)  (   7->   3)  (   8->   2)  (   9->  10)  (  10->  12) 
 (  11->  11)  (  12->   9) 


 irot  :  16
 --------------------------------------------------------------------
 isymop:   0   0   1
           1   0   0
           0  -1   0

 gtrans:     0.0000000     0.0000000     0.0000000

 ptrans:     0.0000000     0.0000000     0.0000000
 rotmap:
 (   1->   8)  (   2->   5)  (   3->   4)  (   4->   1)  (   5->   2) 
 (   6->   3)  (   7->   6)  (   8->   7)  (   9->   9)  (  10->  11) 
 (  11->  12)  (  12->  10) 

 ptrans:     0.5000000     0.5000000     0.0000000
 rotmap:
 (   1->   2)  (   2->   3)  (   3->   6)  (   4->   7)  (   5->   8) 
 (   6->   5)  (   7->   4)  (   8->   1)  (   9->  12)  (  10->  10) 
 (  11->   9)  (  12->  11) 

 ptrans:     0.5000000     0.0000000     0.5000000
 rotmap:
 (   1->   4)  (   2->   1)  (   3->   8)  (   4->   5)  (   5->   6) 
 (   6->   7)  (   7->   2)  (   8->   3)  (   9->  11)  (  10->   9) 
 (  11->  10)  (  12->  12) 

 ptrans:     0.0000000     0.5000000     0.5000000
 rotmap:
 (   1->   6)  (   2->   7)  (   3->   2)  (   4->   3)  (   5->   4) 
 (   6->   1)  (   7->   8)  (   8->   5)  (   9->  10)  (  10->  12) 
 (  11->  11)  (  12->   9) 


 irot  :  17
 --------------------------------------------------------------------
 isymop:   0  -1   0
           0   0  -1
           1   0   0

 gtrans:     0.0000000     0.0000000     0.0000000

 ptrans:     0.0000000     0.0000000     0.0000000
 rotmap:
 (   1->   5)  (   2->   4)  (   3->   3)  (   4->   6)  (   5->   7) 
 (   6->   2)  (   7->   1)  (   8->   8)  (   9->   9)  (  10->  12) 
 (  11->  10)  (  12->  11) 

 ptrans:     0.5000000     0.5000000     0.0000000
 rotmap:
 (   1->   3)  (   2->   6)  (   3->   5)  (   4->   4)  (   5->   1) 
 (   6->   8)  (   7->   7)  (   8->   2)  (   9->  12)  (  10->   9) 
 (  11->  11)  (  12->  10) 

 ptrans:     0.5000000     0.0000000     0.5000000
 rotmap:
 (   1->   1)  (   2->   8)  (   3->   7)  (   4->   2)  (   5->   3) 
 (   6->   6)  (   7->   5)  (   8->   4)  (   9->  11)  (  10->  10) 
 (  11->  12)  (  12->   9) 

 ptrans:     0.0000000     0.5000000     0.5000000
 rotmap:
 (   1->   7)  (   2->   2)  (   3->   1)  (   4->   8)  (   5->   5) 
 (   6->   4)  (   7->   3)  (   8->   6)  (   9->  10)  (  10->  11) 
 (  11->   9)  (  12->  12) 


 irot  :  18
 --------------------------------------------------------------------
 isymop:   0   1   0
           0   0   1
          -1   0   0

 gtrans:     0.0000000     0.0000000     0.0000000

 ptrans:     0.0000000     0.0000000     0.0000000
 rotmap:
 (   1->   2)  (   2->   7)  (   3->   8)  (   4->   1)  (   5->   4) 
 (   6->   5)  (   7->   6)  (   8->   3)  (   9->   9)  (  10->  12) 
 (  11->  10)  (  12->  11) 

 ptrans:     0.5000000     0.5000000     0.0000000
 rotmap:
 (   1->   8)  (   2->   1)  (   3->   2)  (   4->   7)  (   5->   6) 
 (   6->   3)  (   7->   4)  (   8->   5)  (   9->  12)  (  10->   9) 
 (  11->  11)  (  12->  10) 

 ptrans:     0.5000000     0.0000000     0.5000000
 rotmap:
 (   1->   6)  (   2->   3)  (   3->   4)  (   4->   5)  (   5->   8) 
 (   6->   1)  (   7->   2)  (   8->   7)  (   9->  11)  (  10->  10) 
 (  11->  12)  (  12->   9) 

 ptrans:     0.0000000     0.5000000     0.5000000
 rotmap:
 (   1->   4)  (   2->   5)  (   3->   6)  (   4->   3)  (   5->   2) 
 (   6->   7)  (   7->   8)  (   8->   1)  (   9->  10)  (  10->  11) 
 (  11->   9)  (  12->  12) 


 irot  :  19
 --------------------------------------------------------------------
 isymop:   0   1   0
          -1   0   0
           0   0   1

 gtrans:     0.0000000     0.0000000     0.0000000

 ptrans:     0.0000000     0.0000000     0.0000000
 rotmap:
 (   1->   2)  (   2->   7)  (   3->   6)  (   4->   3)  (   5->   4) 
 (   6->   5)  (   7->   8)  (   8->   1)  (   9->   9)  (  10->  11) 
 (  11->  10)  (  12->  12) 

 ptrans:     0.5000000     0.5000000     0.0000000
 rotmap:
 (   1->   8)  (   2->   1)  (   3->   4)  (   4->   5)  (   5->   6) 
 (   6->   3)  (   7->   2)  (   8->   7)  (   9->  12)  (  10->  10) 
 (  11->  11)  (  12->   9) 

 ptrans:     0.5000000     0.0000000     0.5000000
 rotmap:
 (   1->   6)  (   2->   3)  (   3->   2)  (   4->   7)  (   5->   8) 
 (   6->   1)  (   7->   4)  (   8->   5)  (   9->  11)  (  10->   9) 
 (  11->  12)  (  12->  10) 

 ptrans:     0.0000000     0.5000000     0.5000000
 rotmap:
 (   1->   4)  (   2->   5)  (   3->   8)  (   4->   1)  (   5->   2) 
 (   6->   7)  (   7->   6)  (   8->   3)  (   9->  10)  (  10->  12) 
 (  11->   9)  (  12->  11) 


 irot  :  20
 --------------------------------------------------------------------
 isymop:   0  -1   0
           1   0   0
           0   0  -1

 gtrans:     0.0000000     0.0000000     0.0000000

 ptrans:     0.0000000     0.0000000     0.0000000
 rotmap:
 (   1->   5)  (   2->   4)  (   3->   1)  (   4->   8)  (   5->   7) 
 (   6->   2)  (   7->   3)  (   8->   6)  (   9->   9)  (  10->  11) 
 (  11->  10)  (  12->  12) 

 ptrans:     0.5000000     0.5000000     0.0000000
 rotmap:
 (   1->   3)  (   2->   6)  (   3->   7)  (   4->   2)  (   5->   1) 
 (   6->   8)  (   7->   5)  (   8->   4)  (   9->  12)  (  10->  10) 
 (  11->  11)  (  12->   9) 

 ptrans:     0.5000000     0.0000000     0.5000000
 rotmap:
 (   1->   1)  (   2->   8)  (   3->   5)  (   4->   4)  (   5->   3) 
 (   6->   6)  (   7->   7)  (   8->   2)  (   9->  11)  (  10->   9) 
 (  11->  12)  (  12->  10) 

 ptrans:     0.0000000     0.5000000     0.5000000
 rotmap:
 (   1->   7)  (   2->   2)  (   3->   3)  (   4->   6)  (   5->   5) 
 (   6->   4)  (   7->   1)  (   8->   8)  (   9->  10)  (  10->  12) 
 (  11->   9)  (  12->  11) 


 irot  :  21
 --------------------------------------------------------------------
 isymop:   1   0   0
           0   0  -1
           0   1   0

 gtrans:     0.0000000     0.0000000     0.0000000

 ptrans:     0.0000000     0.0000000     0.0000000
 rotmap:
 (   1->   4)  (   2->   1)  (   3->   2)  (   4->   3)  (   5->   6) 
 (   6->   7)  (   7->   8)  (   8->   5)  (   9->   9)  (  10->  10) 
 (  11->  12)  (  12->  11) 

 ptrans:     0.5000000     0.5000000     0.0000000
 rotmap:
 (   1->   6)  (   2->   7)  (   3->   8)  (   4->   5)  (   5->   4) 
 (   6->   1)  (   7->   2)  (   8->   3)  (   9->  12)  (  10->  11) 
 (  11->   9)  (  12->  10) 

 ptrans:     0.5000000     0.0000000     0.5000000
 rotmap:
 (   1->   8)  (   2->   5)  (   3->   6)  (   4->   7)  (   5->   2) 
 (   6->   3)  (   7->   4)  (   8->   1)  (   9->  11)  (  10->  12) 
 (  11->  10)  (  12->   9) 

 ptrans:     0.0000000     0.5000000     0.5000000
 rotmap:
 (   1->   2)  (   2->   3)  (   3->   4)  (   4->   1)  (   5->   8) 
 (   6->   5)  (   7->   6)  (   8->   7)  (   9->  10)  (  10->   9) 
 (  11->  11)  (  12->  12) 


 irot  :  22
 --------------------------------------------------------------------
 isymop:  -1   0   0
           0   0   1
           0  -1   0

 gtrans:     0.0000000     0.0000000     0.0000000

 ptrans:     0.0000000     0.0000000     0.0000000
 rotmap:
 (   1->   7)  (   2->   6)  (   3->   5)  (   4->   8)  (   5->   1) 
 (   6->   4)  (   7->   3)  (   8->   2)  (   9->   9)  (  10->  10) 
 (  11->  12)  (  12->  11) 

 ptrans:     0.5000000     0.5000000     0.0000000
 rotmap:
 (   1->   1)  (   2->   4)  (   3->   3)  (   4->   2)  (   5->   7) 
 (   6->   6)  (   7->   5)  (   8->   8)  (   9->  12)  (  10->  11) 
 (  11->   9)  (  12->  10) 

 ptrans:     0.5000000     0.0000000     0.5000000
 rotmap:
 (   1->   3)  (   2->   2)  (   3->   1)  (   4->   4)  (   5->   5) 
 (   6->   8)  (   7->   7)  (   8->   6)  (   9->  11)  (  10->  12) 
 (  11->  10)  (  12->   9) 

 ptrans:     0.0000000     0.5000000     0.5000000
 rotmap:
 (   1->   5)  (   2->   8)  (   3->   7)  (   4->   6)  (   5->   3) 
 (   6->   2)  (   7->   1)  (   8->   4)  (   9->  10)  (  10->   9) 
 (  11->  11)  (  12->  12) 


 irot  :  23
 --------------------------------------------------------------------
 isymop:   0   0   1
           0  -1   0
           1   0   0

 gtrans:     0.0000000     0.0000000     0.0000000

 ptrans:     0.0000000     0.0000000     0.0000000
 rotmap:
 (   1->   6)  (   2->   5)  (   3->   4)  (   4->   3)  (   5->   2) 
 (   6->   1)  (   7->   8)  (   8->   7)  (   9->   9)  (  10->  12) 
 (  11->  11)  (  12->  10) 

 ptrans:     0.5000000     0.5000000     0.0000000
 rotmap:
 (   1->   4)  (   2->   3)  (   3->   6)  (   4->   5)  (   5->   8) 
 (   6->   7)  (   7->   2)  (   8->   1)  (   9->  12)  (  10->   9) 
 (  11->  10)  (  12->  11) 

 ptrans:     0.5000000     0.0000000     0.5000000
 rotmap:
 (   1->   2)  (   2->   1)  (   3->   8)  (   4->   7)  (   5->   6) 
 (   6->   5)  (   7->   4)  (   8->   3)  (   9->  11)  (  10->  10) 
 (  11->   9)  (  12->  12) 

 ptrans:     0.0000000     0.5000000     0.5000000
 rotmap:
 (   1->   8)  (   2->   7)  (   3->   2)  (   4->   1)  (   5->   4) 
 (   6->   3)  (   7->   6)  (   8->   5)  (   9->  10)  (  10->  11) 
 (  11->  12)  (  12->   9) 


 irot  :  24
 --------------------------------------------------------------------
 isymop:   0   0  -1
           0   1   0
          -1   0   0

 gtrans:     0.0000000     0.0000000     0.0000000

 ptrans:     0.0000000     0.0000000     0.0000000
 rotmap:
 (   1->   1)  (   2->   2)  (   3->   7)  (   4->   8)  (   5->   5) 
 (   6->   6)  (   7->   3)  (   8->   4)  (   9->   9)  (  10->  12) 
 (  11->  11)  (  12->  10) 

 ptrans:     0.5000000     0.5000000     0.0000000
 rotmap:
 (   1->   7)  (   2->   8)  (   3->   1)  (   4->   2)  (   5->   3) 
 (   6->   4)  (   7->   5)  (   8->   6)  (   9->  12)  (  10->   9) 
 (  11->  10)  (  12->  11) 

 ptrans:     0.5000000     0.0000000     0.5000000
 rotmap:
 (   1->   5)  (   2->   6)  (   3->   3)  (   4->   4)  (   5->   1) 
 (   6->   2)  (   7->   7)  (   8->   8)  (   9->  11)  (  10->  10) 
 (  11->   9)  (  12->  12) 

 ptrans:     0.0000000     0.5000000     0.5000000
 rotmap:
 (   1->   3)  (   2->   4)  (   3->   5)  (   4->   6)  (   5->   7) 
 (   6->   8)  (   7->   1)  (   8->   2)  (   9->  10)  (  10->  11) 
 (  11->  12)  (  12->   9) 


 irot  :  25
 --------------------------------------------------------------------
 isymop:   0   0   1
          -1   0   0
           0  -1   0

 gtrans:     0.0000000     0.0000000     0.0000000

 ptrans:     0.0000000     0.0000000     0.0000000
 rotmap:
 (   1->   7)  (   2->   6)  (   3->   3)  (   4->   2)  (   5->   1) 
 (   6->   4)  (   7->   5)  (   8->   8)  (   9->   9)  (  10->  11) 
 (  11->  12)  (  12->  10) 

 ptrans:     0.5000000     0.5000000     0.0000000
 rotmap:
 (   1->   1)  (   2->   4)  (   3->   5)  (   4->   8)  (   5->   7) 
 (   6->   6)  (   7->   3)  (   8->   2)  (   9->  12)  (  10->  10) 
 (  11->   9)  (  12->  11) 

 ptrans:     0.5000000     0.0000000     0.5000000
 rotmap:
 (   1->   3)  (   2->   2)  (   3->   7)  (   4->   6)  (   5->   5) 
 (   6->   8)  (   7->   1)  (   8->   4)  (   9->  11)  (  10->   9) 
 (  11->  10)  (  12->  12) 

 ptrans:     0.0000000     0.5000000     0.5000000
 rotmap:
 (   1->   5)  (   2->   8)  (   3->   1)  (   4->   4)  (   5->   3) 
 (   6->   2)  (   7->   7)  (   8->   6)  (   9->  10)  (  10->  12) 
 (  11->  11)  (  12->   9) 


 irot  :  26
 --------------------------------------------------------------------
 isymop:   0   0  -1
           1   0   0
           0   1   0

 gtrans:     0.0000000     0.0000000     0.0000000

 ptrans:     0.0000000     0.0000000     0.0000000
 rotmap:
 (   1->   4)  (   2->   1)  (   3->   8)  (   4->   5)  (   5->   6) 
 (   6->   7)  (   7->   2)  (   8->   3)  (   9->   9)  (  10->  11) 
 (  11->  12)  (  12->  10) 

 ptrans:     0.5000000     0.5000000     0.0000000
 rotmap:
 (   1->   6)  (   2->   7)  (   3->   2)  (   4->   3)  (   5->   4) 
 (   6->   1)  (   7->   8)  (   8->   5)  (   9->  12)  (  10->  10) 
 (  11->   9)  (  12->  11) 

 ptrans:     0.5000000     0.0000000     0.5000000
 rotmap:
 (   1->   8)  (   2->   5)  (   3->   4)  (   4->   1)  (   5->   2) 
 (   6->   3)  (   7->   6)  (   8->   7)  (   9->  11)  (  10->   9) 
 (  11->  10)  (  12->  12) 

 ptrans:     0.0000000     0.5000000     0.5000000
 rotmap:
 (   1->   2)  (   2->   3)  (   3->   6)  (   4->   7)  (   5->   8) 
 (   6->   5)  (   7->   4)  (   8->   1)  (   9->  10)  (  10->  12) 
 (  11->  11)  (  12->   9) 


 irot  :  27
 --------------------------------------------------------------------
 isymop:   0   1   0
           0   0  -1
          -1   0   0

 gtrans:     0.0000000     0.0000000     0.0000000

 ptrans:     0.0000000     0.0000000     0.0000000
 rotmap:
 (   1->   1)  (   2->   8)  (   3->   7)  (   4->   2)  (   5->   3) 
 (   6->   6)  (   7->   5)  (   8->   4)  (   9->   9)  (  10->  12) 
 (  11->  10)  (  12->  11) 

 ptrans:     0.5000000     0.5000000     0.0000000
 rotmap:
 (   1->   7)  (   2->   2)  (   3->   1)  (   4->   8)  (   5->   5) 
 (   6->   4)  (   7->   3)  (   8->   6)  (   9->  12)  (  10->   9) 
 (  11->  11)  (  12->  10) 

 ptrans:     0.5000000     0.0000000     0.5000000
 rotmap:
 (   1->   5)  (   2->   4)  (   3->   3)  (   4->   6)  (   5->   7) 
 (   6->   2)  (   7->   1)  (   8->   8)  (   9->  11)  (  10->  10) 
 (  11->  12)  (  12->   9) 

 ptrans:     0.0000000     0.5000000     0.5000000
 rotmap:
 (   1->   3)  (   2->   6)  (   3->   5)  (   4->   4)  (   5->   1) 
 (   6->   8)  (   7->   7)  (   8->   2)  (   9->  10)  (  10->  11) 
 (  11->   9)  (  12->  12) 


 irot  :  28
 --------------------------------------------------------------------
 isymop:   0  -1   0
           0   0   1
           1   0   0

 gtrans:     0.0000000     0.0000000     0.0000000

 ptrans:     0.0000000     0.0000000     0.0000000
 rotmap:
 (   1->   6)  (   2->   3)  (   3->   4)  (   4->   5)  (   5->   8) 
 (   6->   1)  (   7->   2)  (   8->   7)  (   9->   9)  (  10->  12) 
 (  11->  10)  (  12->  11) 

 ptrans:     0.5000000     0.5000000     0.0000000
 rotmap:
 (   1->   4)  (   2->   5)  (   3->   6)  (   4->   3)  (   5->   2) 
 (   6->   7)  (   7->   8)  (   8->   1)  (   9->  12)  (  10->   9) 
 (  11->  11)  (  12->  10) 

 ptrans:     0.5000000     0.0000000     0.5000000
 rotmap:
 (   1->   2)  (   2->   7)  (   3->   8)  (   4->   1)  (   5->   4) 
 (   6->   5)  (   7->   6)  (   8->   3)  (   9->  11)  (  10->  10) 
 (  11->  12)  (  12->   9) 

 ptrans:     0.0000000     0.5000000     0.5000000
 rotmap:
 (   1->   8)  (   2->   1)  (   3->   2)  (   4->   7)  (   5->   6) 
 (   6->   3)  (   7->   4)  (   8->   5)  (   9->  10)  (  10->  11) 
 (  11->   9)  (  12->  12) 


 irot  :  29
 --------------------------------------------------------------------
 isymop:   1   0   0
           0  -1   0
           0   0  -1

 gtrans:     0.0000000     0.0000000     0.0000000

 ptrans:     0.0000000     0.0000000     0.0000000
 rotmap:
 (   1->   3)  (   2->   4)  (   3->   1)  (   4->   2)  (   5->   7) 
 (   6->   8)  (   7->   5)  (   8->   6)  (   9->   9)  (  10->  10) 
 (  11->  11)  (  12->  12) 

 ptrans:     0.5000000     0.5000000     0.0000000
 rotmap:
 (   1->   5)  (   2->   6)  (   3->   7)  (   4->   8)  (   5->   1) 
 (   6->   2)  (   7->   3)  (   8->   4)  (   9->  12)  (  10->  11) 
 (  11->  10)  (  12->   9) 

 ptrans:     0.5000000     0.0000000     0.5000000
 rotmap:
 (   1->   7)  (   2->   8)  (   3->   5)  (   4->   6)  (   5->   3) 
 (   6->   4)  (   7->   1)  (   8->   2)  (   9->  11)  (  10->  12) 
 (  11->   9)  (  12->  10) 

 ptrans:     0.0000000     0.5000000     0.5000000
 rotmap:
 (   1->   1)  (   2->   2)  (   3->   3)  (   4->   4)  (   5->   5) 
 (   6->   6)  (   7->   7)  (   8->   8)  (   9->  10)  (  10->   9) 
 (  11->  12)  (  12->  11) 


 irot  :  30
 --------------------------------------------------------------------
 isymop:  -1   0   0
           0   1   0
           0   0   1

 gtrans:     0.0000000     0.0000000     0.0000000

 ptrans:     0.0000000     0.0000000     0.0000000
 rotmap:
 (   1->   8)  (   2->   7)  (   3->   6)  (   4->   5)  (   5->   4) 
 (   6->   3)  (   7->   2)  (   8->   1)  (   9->   9)  (  10->  10) 
 (  11->  11)  (  12->  12) 

 ptrans:     0.5000000     0.5000000     0.0000000
 rotmap:
 (   1->   2)  (   2->   1)  (   3->   4)  (   4->   3)  (   5->   6) 
 (   6->   5)  (   7->   8)  (   8->   7)  (   9->  12)  (  10->  11) 
 (  11->  10)  (  12->   9) 

 ptrans:     0.5000000     0.0000000     0.5000000
 rotmap:
 (   1->   4)  (   2->   3)  (   3->   2)  (   4->   1)  (   5->   8) 
 (   6->   7)  (   7->   6)  (   8->   5)  (   9->  11)  (  10->  12) 
 (  11->   9)  (  12->  10) 

 ptrans:     0.0000000     0.5000000     0.5000000
 rotmap:
 (   1->   6)  (   2->   5)  (   3->   8)  (   4->   7)  (   5->   2) 
 (   6->   1)  (   7->   4)  (   8->   3)  (   9->  10)  (  10->   9) 
 (  11->  12)  (  12->  11) 


 irot  :  31
 --------------------------------------------------------------------
 isymop:   0   0   1
           0   1   0
          -1   0   0

 gtrans:     0.0000000     0.0000000     0.0000000

 ptrans:     0.0000000     0.0000000     0.0000000
 rotmap:
 (   1->   8)  (   2->   7)  (   3->   2)  (   4->   1)  (   5->   4) 
 (   6->   3)  (   7->   6)  (   8->   5)  (   9->   9)  (  10->  12) 
 (  11->  11)  (  12->  10) 

 ptrans:     0.5000000     0.5000000     0.0000000
 rotmap:
 (   1->   2)  (   2->   1)  (   3->   8)  (   4->   7)  (   5->   6) 
 (   6->   5)  (   7->   4)  (   8->   3)  (   9->  12)  (  10->   9) 
 (  11->  10)  (  12->  11) 

 ptrans:     0.5000000     0.0000000     0.5000000
 rotmap:
 (   1->   4)  (   2->   3)  (   3->   6)  (   4->   5)  (   5->   8) 
 (   6->   7)  (   7->   2)  (   8->   1)  (   9->  11)  (  10->  10) 
 (  11->   9)  (  12->  12) 

 ptrans:     0.0000000     0.5000000     0.5000000
 rotmap:
 (   1->   6)  (   2->   5)  (   3->   4)  (   4->   3)  (   5->   2) 
 (   6->   1)  (   7->   8)  (   8->   7)  (   9->  10)  (  10->  11) 
 (  11->  12)  (  12->   9) 


 irot  :  32
 --------------------------------------------------------------------
 isymop:   0   0  -1
           0  -1   0
           1   0   0

 gtrans:     0.0000000     0.0000000     0.0000000

 ptrans:     0.0000000     0.0000000     0.0000000
 rotmap:
 (   1->   3)  (   2->   4)  (   3->   5)  (   4->   6)  (   5->   7) 
 (   6->   8)  (   7->   1)  (   8->   2)  (   9->   9)  (  10->  12) 
 (  11->  11)  (  12->  10) 

 ptrans:     0.5000000     0.5000000     0.0000000
 rotmap:
 (   1->   5)  (   2->   6)  (   3->   3)  (   4->   4)  (   5->   1) 
 (   6->   2)  (   7->   7)  (   8->   8)  (   9->  12)  (  10->   9) 
 (  11->  10)  (  12->  11) 

 ptrans:     0.5000000     0.0000000     0.5000000
 rotmap:
 (   1->   7)  (   2->   8)  (   3->   1)  (   4->   2)  (   5->   3) 
 (   6->   4)  (   7->   5)  (   8->   6)  (   9->  11)  (  10->  10) 
 (  11->   9)  (  12->  12) 

 ptrans:     0.0000000     0.5000000     0.5000000
 rotmap:
 (   1->   1)  (   2->   2)  (   3->   7)  (   4->   8)  (   5->   5) 
 (   6->   6)  (   7->   3)  (   8->   4)  (   9->  10)  (  10->  11) 
 (  11->  12)  (  12->   9) 


 irot  :  33
 --------------------------------------------------------------------
 isymop:   0   1   0
           1   0   0
           0   0  -1

 gtrans:     0.0000000     0.0000000     0.0000000

 ptrans:     0.0000000     0.0000000     0.0000000
 rotmap:
 (   1->   4)  (   2->   5)  (   3->   8)  (   4->   1)  (   5->   2) 
 (   6->   7)  (   7->   6)  (   8->   3)  (   9->   9)  (  10->  11) 
 (  11->  10)  (  12->  12) 

 ptrans:     0.5000000     0.5000000     0.0000000
 rotmap:
 (   1->   6)  (   2->   3)  (   3->   2)  (   4->   7)  (   5->   8) 
 (   6->   1)  (   7->   4)  (   8->   5)  (   9->  12)  (  10->  10) 
 (  11->  11)  (  12->   9) 

 ptrans:     0.5000000     0.0000000     0.5000000
 rotmap:
 (   1->   8)  (   2->   1)  (   3->   4)  (   4->   5)  (   5->   6) 
 (   6->   3)  (   7->   2)  (   8->   7)  (   9->  11)  (  10->   9) 
 (  11->  12)  (  12->  10) 

 ptrans:     0.0000000     0.5000000     0.5000000
 rotmap:
 (   1->   2)  (   2->   7)  (   3->   6)  (   4->   3)  (   5->   4) 
 (   6->   5)  (   7->   8)  (   8->   1)  (   9->  10)  (  10->  12) 
 (  11->   9)  (  12->  11) 


 irot  :  34
 --------------------------------------------------------------------
 isymop:   0  -1   0
          -1   0   0
           0   0   1

 gtrans:     0.0000000     0.0000000     0.0000000

 ptrans:     0.0000000     0.0000000     0.0000000
 rotmap:
 (   1->   7)  (   2->   2)  (   3->   3)  (   4->   6)  (   5->   5) 
 (   6->   4)  (   7->   1)  (   8->   8)  (   9->   9)  (  10->  11) 
 (  11->  10)  (  12->  12) 

 ptrans:     0.5000000     0.5000000     0.0000000
 rotmap:
 (   1->   1)  (   2->   8)  (   3->   5)  (   4->   4)  (   5->   3) 
 (   6->   6)  (   7->   7)  (   8->   2)  (   9->  12)  (  10->  10) 
 (  11->  11)  (  12->   9) 

 ptrans:     0.5000000     0.0000000     0.5000000
 rotmap:
 (   1->   3)  (   2->   6)  (   3->   7)  (   4->   2)  (   5->   1) 
 (   6->   8)  (   7->   5)  (   8->   4)  (   9->  11)  (  10->   9) 
 (  11->  12)  (  12->  10) 

 ptrans:     0.0000000     0.5000000     0.5000000
 rotmap:
 (   1->   5)  (   2->   4)  (   3->   1)  (   4->   8)  (   5->   7) 
 (   6->   2)  (   7->   3)  (   8->   6)  (   9->  10)  (  10->  12) 
 (  11->   9)  (  12->  11) 


 irot  :  35
 --------------------------------------------------------------------
 isymop:   1   0   0
           0   0   1
           0  -1   0

 gtrans:     0.0000000     0.0000000     0.0000000

 ptrans:     0.0000000     0.0000000     0.0000000
 rotmap:
 (   1->   2)  (   2->   3)  (   3->   4)  (   4->   1)  (   5->   8) 
 (   6->   5)  (   7->   6)  (   8->   7)  (   9->   9)  (  10->  10) 
 (  11->  12)  (  12->  11) 

 ptrans:     0.5000000     0.5000000     0.0000000
 rotmap:
 (   1->   8)  (   2->   5)  (   3->   6)  (   4->   7)  (   5->   2) 
 (   6->   3)  (   7->   4)  (   8->   1)  (   9->  12)  (  10->  11) 
 (  11->   9)  (  12->  10) 

 ptrans:     0.5000000     0.0000000     0.5000000
 rotmap:
 (   1->   6)  (   2->   7)  (   3->   8)  (   4->   5)  (   5->   4) 
 (   6->   1)  (   7->   2)  (   8->   3)  (   9->  11)  (  10->  12) 
 (  11->  10)  (  12->   9) 

 ptrans:     0.0000000     0.5000000     0.5000000
 rotmap:
 (   1->   4)  (   2->   1)  (   3->   2)  (   4->   3)  (   5->   6) 
 (   6->   7)  (   7->   8)  (   8->   5)  (   9->  10)  (  10->   9) 
 (  11->  11)  (  12->  12) 


 irot  :  36
 --------------------------------------------------------------------
 isymop:  -1   0   0
           0   0  -1
           0   1   0

 gtrans:     0.0000000     0.0000000     0.0000000

 ptrans:     0.0000000     0.0000000     0.0000000
 rotmap:
 (   1->   5)  (   2->   8)  (   3->   7)  (   4->   6)  (   5->   3) 
 (   6->   2)  (   7->   1)  (   8->   4)  (   9->   9)  (  10->  10) 
 (  11->  12)  (  12->  11) 

 ptrans:     0.5000000     0.5000000     0.0000000
 rotmap:
 (   1->   3)  (   2->   2)  (   3->   1)  (   4->   4)  (   5->   5) 
 (   6->   8)  (   7->   7)  (   8->   6)  (   9->  12)  (  10->  11) 
 (  11->   9)  (  12->  10) 

 ptrans:     0.5000000     0.0000000     0.5000000
 rotmap:
 (   1->   1)  (   2->   4)  (   3->   3)  (   4->   2)  (   5->   7) 
 (   6->   6)  (   7->   5)  (   8->   8)  (   9->  11)  (  10->  12) 
 (  11->  10)  (  12->   9) 

 ptrans:     0.0000000     0.5000000     0.5000000
 rotmap:
 (   1->   7)  (   2->   6)  (   3->   5)  (   4->   8)  (   5->   1) 
 (   6->   4)  (   7->   3)  (   8->   2)  (   9->  10)  (  10->   9) 
 (  11->  11)  (  12->  12) 


 irot  :  37
 --------------------------------------------------------------------
 isymop:   0  -1   0
           0   0   1
          -1   0   0

 gtrans:     0.0000000     0.0000000     0.0000000

 ptrans:     0.0000000     0.0000000     0.0000000
 rotmap:
 (   1->   7)  (   2->   2)  (   3->   1)  (   4->   8)  (   5->   5) 
 (   6->   4)  (   7->   3)  (   8->   6)  (   9->   9)  (  10->  12) 
 (  11->  10)  (  12->  11) 

 ptrans:     0.5000000     0.5000000     0.0000000
 rotmap:
 (   1->   1)  (   2->   8)  (   3->   7)  (   4->   2)  (   5->   3) 
 (   6->   6)  (   7->   5)  (   8->   4)  (   9->  12)  (  10->   9) 
 (  11->  11)  (  12->  10) 

 ptrans:     0.5000000     0.0000000     0.5000000
 rotmap:
 (   1->   3)  (   2->   6)  (   3->   5)  (   4->   4)  (   5->   1) 
 (   6->   8)  (   7->   7)  (   8->   2)  (   9->  11)  (  10->  10) 
 (  11->  12)  (  12->   9) 

 ptrans:     0.0000000     0.5000000     0.5000000
 rotmap:
 (   1->   5)  (   2->   4)  (   3->   3)  (   4->   6)  (   5->   7) 
 (   6->   2)  (   7->   1)  (   8->   8)  (   9->  10)  (  10->  11) 
 (  11->   9)  (  12->  12) 


 irot  :  38
 --------------------------------------------------------------------
 isymop:   0   1   0
           0   0  -1
           1   0   0

 gtrans:     0.0000000     0.0000000     0.0000000

 ptrans:     0.0000000     0.0000000     0.0000000
 rotmap:
 (   1->   4)  (   2->   5)  (   3->   6)  (   4->   3)  (   5->   2) 
 (   6->   7)  (   7->   8)  (   8->   1)  (   9->   9)  (  10->  12) 
 (  11->  10)  (  12->  11) 

 ptrans:     0.5000000     0.5000000     0.0000000
 rotmap:
 (   1->   6)  (   2->   3)  (   3->   4)  (   4->   5)  (   5->   8) 
 (   6->   1)  (   7->   2)  (   8->   7)  (   9->  12)  (  10->   9) 
 (  11->  11)  (  12->  10) 

 ptrans:     0.5000000     0.0000000     0.5000000
 rotmap:
 (   1->   8)  (   2->   1)  (   3->   2)  (   4->   7)  (   5->   6) 
 (   6->   3)  (   7->   4)  (   8->   5)  (   9->  11)  (  10->  10) 
 (  11->  12)  (  12->   9) 

 ptrans:     0.0000000     0.5000000     0.5000000
 rotmap:
 (   1->   2)  (   2->   7)  (   3->   8)  (   4->   1)  (   5->   4) 
 (   6->   5)  (   7->   6)  (   8->   3)  (   9->  10)  (  10->  11) 
 (  11->   9)  (  12->  12) 


 irot  :  39
 --------------------------------------------------------------------
 isymop:  -1   0   0
           0   1   0
           0   0  -1

 gtrans:     0.0000000     0.0000000     0.0000000

 ptrans:     0.0000000     0.0000000     0.0000000
 rotmap:
 (   1->   5)  (   2->   6)  (   3->   7)  (   4->   8)  (   5->   1) 
 (   6->   2)  (   7->   3)  (   8->   4)  (   9->   9)  (  10->  10) 
 (  11->  11)  (  12->  12) 

 ptrans:     0.5000000     0.5000000     0.0000000
 rotmap:
 (   1->   3)  (   2->   4)  (   3->   1)  (   4->   2)  (   5->   7) 
 (   6->   8)  (   7->   5)  (   8->   6)  (   9->  12)  (  10->  11) 
 (  11->  10)  (  12->   9) 

 ptrans:     0.5000000     0.0000000     0.5000000
 rotmap:
 (   1->   1)  (   2->   2)  (   3->   3)  (   4->   4)  (   5->   5) 
 (   6->   6)  (   7->   7)  (   8->   8)  (   9->  11)  (  10->  12) 
 (  11->   9)  (  12->  10) 

 ptrans:     0.0000000     0.5000000     0.5000000
 rotmap:
 (   1->   7)  (   2->   8)  (   3->   5)  (   4->   6)  (   5->   3) 
 (   6->   4)  (   7->   1)  (   8->   2)  (   9->  10)  (  10->   9) 
 (  11->  12)  (  12->  11) 


 irot  :  40
 --------------------------------------------------------------------
 isymop:   1   0   0
           0  -1   0
           0   0   1

 gtrans:     0.0000000     0.0000000     0.0000000

 ptrans:     0.0000000     0.0000000     0.0000000
 rotmap:
 (   1->   2)  (   2->   1)  (   3->   4)  (   4->   3)  (   5->   6) 
 (   6->   5)  (   7->   8)  (   8->   7)  (   9->   9)  (  10->  10) 
 (  11->  11)  (  12->  12) 

 ptrans:     0.5000000     0.5000000     0.0000000
 rotmap:
 (   1->   8)  (   2->   7)  (   3->   6)  (   4->   5)  (   5->   4) 
 (   6->   3)  (   7->   2)  (   8->   1)  (   9->  12)  (  10->  11) 
 (  11->  10)  (  12->   9) 

 ptrans:     0.5000000     0.0000000     0.5000000
 rotmap:
 (   1->   6)  (   2->   5)  (   3->   8)  (   4->   7)  (   5->   2) 
 (   6->   1)  (   7->   4)  (   8->   3)  (   9->  11)  (  10->  12) 
 (  11->   9)  (  12->  10) 

 ptrans:     0.0000000     0.5000000     0.5000000
 rotmap:
 (   1->   4)  (   2->   3)  (   3->   2)  (   4->   1)  (   5->   8) 
 (   6->   7)  (   7->   6)  (   8->   5)  (   9->  10)  (  10->   9) 
 (  11->  12)  (  12->  11) 


 irot  :  41
 --------------------------------------------------------------------
 isymop:   0   0  -1
           1   0   0
           0  -1   0

 gtrans:     0.0000000     0.0000000     0.0000000

 ptrans:     0.0000000     0.0000000     0.0000000
 rotmap:
 (   1->   1)  (   2->   4)  (   3->   5)  (   4->   8)  (   5->   7) 
 (   6->   6)  (   7->   3)  (   8->   2)  (   9->   9)  (  10->  11) 
 (  11->  12)  (  12->  10) 

 ptrans:     0.5000000     0.5000000     0.0000000
 rotmap:
 (   1->   7)  (   2->   6)  (   3->   3)  (   4->   2)  (   5->   1) 
 (   6->   4)  (   7->   5)  (   8->   8)  (   9->  12)  (  10->  10) 
 (  11->   9)  (  12->  11) 

 ptrans:     0.5000000     0.0000000     0.5000000
 rotmap:
 (   1->   5)  (   2->   8)  (   3->   1)  (   4->   4)  (   5->   3) 
 (   6->   2)  (   7->   7)  (   8->   6)  (   9->  11)  (  10->   9) 
 (  11->  10)  (  12->  12) 

 ptrans:     0.0000000     0.5000000     0.5000000
 rotmap:
 (   1->   3)  (   2->   2)  (   3->   7)  (   4->   6)  (   5->   5) 
 (   6->   8)  (   7->   1)  (   8->   4)  (   9->  10)  (  10->  12) 
 (  11->  11)  (  12->   9) 


 irot  :  42
 --------------------------------------------------------------------
 isymop:   0   0   1
          -1   0   0
           0   1   0

 gtrans:     0.0000000     0.0000000     0.0000000

 ptrans:     0.0000000     0.0000000     0.0000000
 rotmap:
 (   1->   6)  (   2->   7)  (   3->   2)  (   4->   3)  (   5->   4) 
 (   6->   1)  (   7->   8)  (   8->   5)  (   9->   9)  (  10->  11) 
 (  11->  12)  (  12->  10) 

 ptrans:     0.5000000     0.5000000     0.0000000
 rotmap:
 (   1->   4)  (   2->   1)  (   3->   8)  (   4->   5)  (   5->   6) 
 (   6->   7)  (   7->   2)  (   8->   3)  (   9->  12)  (  10->  10) 
 (  11->   9)  (  12->  11) 

 ptrans:     0.5000000     0.0000000     0.5000000
 rotmap:
 (   1->   2)  (   2->   3)  (   3->   6)  (   4->   7)  (   5->   8) 
 (   6->   5)  (   7->   4)  (   8->   1)  (   9->  11)  (  10->   9) 
 (  11->  10)  (  12->  12) 

 ptrans:     0.0000000     0.5000000     0.5000000
 rotmap:
 (   1->   8)  (   2->   5)  (   3->   4)  (   4->   1)  (   5->   2) 
 (   6->   3)  (   7->   6)  (   8->   7)  (   9->  10)  (  10->  12) 
 (  11->  11)  (  12->   9) 


 irot  :  43
 --------------------------------------------------------------------
 isymop:  -1   0   0
           0   0  -1
           0  -1   0

 gtrans:     0.0000000     0.0000000     0.0000000

 ptrans:     0.0000000     0.0000000     0.0000000
 rotmap:
 (   1->   8)  (   2->   5)  (   3->   6)  (   4->   7)  (   5->   2) 
 (   6->   3)  (   7->   4)  (   8->   1)  (   9->   9)  (  10->  10) 
 (  11->  12)  (  12->  11) 

 ptrans:     0.5000000     0.5000000     0.0000000
 rotmap:
 (   1->   2)  (   2->   3)  (   3->   4)  (   4->   1)  (   5->   8) 
 (   6->   5)  (   7->   6)  (   8->   7)  (   9->  12)  (  10->  11) 
 (  11->   9)  (  12->  10) 

 ptrans:     0.5000000     0.0000000     0.5000000
 rotmap:
 (   1->   4)  (   2->   1)  (   3->   2)  (   4->   3)  (   5->   6) 
 (   6->   7)  (   7->   8)  (   8->   5)  (   9->  11)  (  10->  12) 
 (  11->  10)  (  12->   9) 

 ptrans:     0.0000000     0.5000000     0.5000000
 rotmap:
 (   1->   6)  (   2->   7)  (   3->   8)  (   4->   5)  (   5->   4) 
 (   6->   1)  (   7->   2)  (   8->   3)  (   9->  10)  (  10->   9) 
 (  11->  11)  (  12->  12) 


 irot  :  44
 --------------------------------------------------------------------
 isymop:   1   0   0
           0   0   1
           0   1   0

 gtrans:     0.0000000     0.0000000     0.0000000

 ptrans:     0.0000000     0.0000000     0.0000000
 rotmap:
 (   1->   3)  (   2->   2)  (   3->   1)  (   4->   4)  (   5->   5) 
 (   6->   8)  (   7->   7)  (   8->   6)  (   9->   9)  (  10->  10) 
 (  11->  12)  (  12->  11) 

 ptrans:     0.5000000     0.5000000     0.0000000
 rotmap:
 (   1->   5)  (   2->   8)  (   3->   7)  (   4->   6)  (   5->   3) 
 (   6->   2)  (   7->   1)  (   8->   4)  (   9->  12)  (  10->  11) 
 (  11->   9)  (  12->  10) 

 ptrans:     0.5000000     0.0000000     0.5000000
 rotmap:
 (   1->   7)  (   2->   6)  (   3->   5)  (   4->   8)  (   5->   1) 
 (   6->   4)  (   7->   3)  (   8->   2)  (   9->  11)  (  10->  12) 
 (  11->  10)  (  12->   9) 

 ptrans:     0.0000000     0.5000000     0.5000000
 rotmap:
 (   1->   1)  (   2->   4)  (   3->   3)  (   4->   2)  (   5->   7) 
 (   6->   6)  (   7->   5)  (   8->   8)  (   9->  10)  (  10->   9) 
 (  11->  11)  (  12->  12) 


 irot  :  45
 --------------------------------------------------------------------
 isymop:   0  -1   0
          -1   0   0
           0   0  -1

 gtrans:     0.0000000     0.0000000     0.0000000

 ptrans:     0.0000000     0.0000000     0.0000000
 rotmap:
 (   1->   6)  (   2->   3)  (   3->   2)  (   4->   7)  (   5->   8) 
 (   6->   1)  (   7->   4)  (   8->   5)  (   9->   9)  (  10->  11) 
 (  11->  10)  (  12->  12) 

 ptrans:     0.5000000     0.5000000     0.0000000
 rotmap:
 (   1->   4)  (   2->   5)  (   3->   8)  (   4->   1)  (   5->   2) 
 (   6->   7)  (   7->   6)  (   8->   3)  (   9->  12)  (  10->  10) 
 (  11->  11)  (  12->   9) 

 ptrans:     0.5000000     0.0000000     0.5000000
 rotmap:
 (   1->   2)  (   2->   7)  (   3->   6)  (   4->   3)  (   5->   4) 
 (   6->   5)  (   7->   8)  (   8->   1)  (   9->  11)  (  10->   9) 
 (  11->  12)  (  12->  10) 

 ptrans:     0.0000000     0.5000000     0.5000000
 rotmap:
 (   1->   8)  (   2->   1)  (   3->   4)  (   4->   5)  (   5->   6) 
 (   6->   3)  (   7->   2)  (   8->   7)  (   9->  10)  (  10->  12) 
 (  11->   9)  (  12->  11) 


 irot  :  46
 --------------------------------------------------------------------
 isymop:   0   1   0
           1   0   0
           0   0   1

 gtrans:     0.0000000     0.0000000     0.0000000

 ptrans:     0.0000000     0.0000000     0.0000000
 rotmap:
 (   1->   1)  (   2->   8)  (   3->   5)  (   4->   4)  (   5->   3) 
 (   6->   6)  (   7->   7)  (   8->   2)  (   9->   9)  (  10->  11) 
 (  11->  10)  (  12->  12) 

 ptrans:     0.5000000     0.5000000     0.0000000
 rotmap:
 (   1->   7)  (   2->   2)  (   3->   3)  (   4->   6)  (   5->   5) 
 (   6->   4)  (   7->   1)  (   8->   8)  (   9->  12)  (  10->  10) 
 (  11->  11)  (  12->   9) 

 ptrans:     0.5000000     0.0000000     0.5000000
 rotmap:
 (   1->   5)  (   2->   4)  (   3->   1)  (   4->   8)  (   5->   7) 
 (   6->   2)  (   7->   3)  (   8->   6)  (   9->  11)  (  10->   9) 
 (  11->  12)  (  12->  10) 

 ptrans:     0.0000000     0.5000000     0.5000000
 rotmap:
 (   1->   3)  (   2->   6)  (   3->   7)  (   4->   2)  (   5->   1) 
 (   6->   8)  (   7->   5)  (   8->   4)  (   9->  10)  (  10->  12) 
 (  11->   9)  (  12->  11) 


 irot  :  47
 --------------------------------------------------------------------
 isymop:   0   0  -1
           0  -1   0
          -1   0   0

 gtrans:     0.0000000     0.0000000     0.0000000

 ptrans:     0.0000000     0.0000000     0.0000000
 rotmap:
 (   1->   2)  (   2->   1)  (   3->   8)  (   4->   7)  (   5->   6) 
 (   6->   5)  (   7->   4)  (   8->   3)  (   9->   9)  (  10->  12) 
 (  11->  11)  (  12->  10) 

 ptrans:     0.5000000     0.5000000     0.0000000
 rotmap:
 (   1->   8)  (   2->   7)  (   3->   2)  (   4->   1)  (   5->   4) 
 (   6->   3)  (   7->   6)  (   8->   5)  (   9->  12)  (  10->   9) 
 (  11->  10)  (  12->  11) 

 ptrans:     0.5000000     0.0000000     0.5000000
 rotmap:
 (   1->   6)  (   2->   5)  (   3->   4)  (   4->   3)  (   5->   2) 
 (   6->   1)  (   7->   8)  (   8->   7)  (   9->  11)  (  10->  10) 
 (  11->   9)  (  12->  12) 

 ptrans:     0.0000000     0.5000000     0.5000000
 rotmap:
 (   1->   4)  (   2->   3)  (   3->   6)  (   4->   5)  (   5->   8) 
 (   6->   7)  (   7->   2)  (   8->   1)  (   9->  10)  (  10->  11) 
 (  11->  12)  (  12->   9) 


 irot  :  48
 --------------------------------------------------------------------
 isymop:   0   0   1
           0   1   0
           1   0   0

 gtrans:     0.0000000     0.0000000     0.0000000

 ptrans:     0.0000000     0.0000000     0.0000000
 rotmap:
 (   1->   5)  (   2->   6)  (   3->   3)  (   4->   4)  (   5->   1) 
 (   6->   2)  (   7->   7)  (   8->   8)  (   9->   9)  (  10->  12) 
 (  11->  11)  (  12->  10) 

 ptrans:     0.5000000     0.5000000     0.0000000
 rotmap:
 (   1->   3)  (   2->   4)  (   3->   5)  (   4->   6)  (   5->   7) 
 (   6->   8)  (   7->   1)  (   8->   2)  (   9->  12)  (  10->   9) 
 (  11->  10)  (  12->  11) 

 ptrans:     0.5000000     0.0000000     0.5000000
 rotmap:
 (   1->   1)  (   2->   2)  (   3->   7)  (   4->   8)  (   5->   5) 
 (   6->   6)  (   7->   3)  (   8->   4)  (   9->  11)  (  10->  10) 
 (  11->   9)  (  12->  12) 

 ptrans:     0.0000000     0.5000000     0.5000000
 rotmap:
 (   1->   7)  (   2->   8)  (   3->   1)  (   4->   2)  (   5->   3) 
 (   6->   4)  (   7->   5)  (   8->   6)  (   9->  10)  (  10->  11) 
 (  11->  12)  (  12->   9) 
 
 
 KPOINTS: K-Points                                

Automatic generation of k-mesh.
Space group operators:
 irot       det(A)        alpha          n_x          n_y          n_z        tau_x        tau_y        tau_z
    1     1.000000     0.000000     1.000000     0.000000     0.000000     0.000000     0.000000     0.000000
    2    -1.000000     0.000000     1.000000     0.000000     0.000000     0.000000     0.000000     0.000000
    3     1.000000   120.000000    -0.577350    -0.577350    -0.577350     0.000000     0.000000     0.000000
    4    -1.000000   120.000000    -0.577350    -0.577350    -0.577350     0.000000     0.000000     0.000000
    5     1.000000   120.000000     0.577350     0.577350     0.577350     0.000000     0.000000     0.000000
    6    -1.000000   120.000000     0.577350     0.577350     0.577350     0.000000     0.000000     0.000000
    7     1.000000    90.000000     0.000000     0.000000    -1.000000     0.000000     0.000000     0.000000
    8    -1.000000    90.000000     0.000000     0.000000    -1.000000     0.000000     0.000000     0.000000
    9     1.000000   180.000000     0.000000    -0.707107    -0.707107     0.000000     0.000000     0.000000
   10    -1.000000   180.000000     0.000000    -0.707107    -0.707107     0.000000     0.000000     0.000000
   11     1.000000    90.000000     0.000000     1.000000     0.000000     0.000000     0.000000     0.000000
   12    -1.000000    90.000000     0.000000     1.000000     0.000000     0.000000     0.000000     0.000000
   13     1.000000   180.000000    -0.000000    -0.000000     1.000000     0.000000     0.000000     0.000000
   14    -1.000000   180.000000    -0.000000    -0.000000     1.000000     0.000000     0.000000     0.000000
   15     1.000000   120.000000    -0.577350     0.577350     0.577350     0.000000     0.000000     0.000000
   16    -1.000000   120.000000    -0.577350     0.577350     0.577350     0.000000     0.000000     0.000000
   17     1.000000   120.000000    -0.577350     0.577350    -0.577350     0.000000     0.000000     0.000000
   18    -1.000000   120.000000    -0.577350     0.577350    -0.577350     0.000000     0.000000     0.000000
   19     1.000000    90.000000    -0.000000    -0.000000     1.000000     0.000000     0.000000     0.000000
   20    -1.000000    90.000000    -0.000000    -0.000000     1.000000     0.000000     0.000000     0.000000
   21     1.000000    90.000000    -1.000000     0.000000    -0.000000     0.000000     0.000000     0.000000
   22    -1.000000    90.000000    -1.000000     0.000000    -0.000000     0.000000     0.000000     0.000000
   23     1.000000   180.000000    -0.707107     0.000000    -0.707107     0.000000     0.000000     0.000000
   24    -1.000000   180.000000    -0.707107     0.000000    -0.707107     0.000000     0.000000     0.000000
   25     1.000000   120.000000     0.577350    -0.577350     0.577350     0.000000     0.000000     0.000000
   26    -1.000000   120.000000     0.577350    -0.577350     0.577350     0.000000     0.000000     0.000000
   27     1.000000   120.000000    -0.577350    -0.577350     0.577350     0.000000     0.000000     0.000000
   28    -1.000000   120.000000    -0.577350    -0.577350     0.577350     0.000000     0.000000     0.000000
   29     1.000000   180.000000     1.000000    -0.000000     0.000000     0.000000     0.000000     0.000000
   30    -1.000000   180.000000     1.000000    -0.000000     0.000000     0.000000     0.000000     0.000000
   31     1.000000    90.000000    -0.000000    -1.000000     0.000000     0.000000     0.000000     0.000000
   32    -1.000000    90.000000    -0.000000    -1.000000     0.000000     0.000000     0.000000     0.000000
   33     1.000000   180.000000     0.707107     0.707107     0.000000     0.000000     0.000000     0.000000
   34    -1.000000   180.000000     0.707107     0.707107     0.000000     0.000000     0.000000     0.000000
   35     1.000000    90.000000     1.000000    -0.000000    -0.000000     0.000000     0.000000     0.000000
   36    -1.000000    90.000000     1.000000    -0.000000    -0.000000     0.000000     0.000000     0.000000
   37     1.000000   120.000000     0.577350    -0.577350    -0.577350     0.000000     0.000000     0.000000
   38    -1.000000   120.000000     0.577350    -0.577350    -0.577350     0.000000     0.000000     0.000000
   39     1.000000   180.000000     0.000000     1.000000     0.000000     0.000000     0.000000     0.000000
   40    -1.000000   180.000000     0.000000     1.000000     0.000000     0.000000     0.000000     0.000000
   41     1.000000   120.000000     0.577350     0.577350    -0.577350     0.000000     0.000000     0.000000
   42    -1.000000   120.000000     0.577350     0.577350    -0.577350     0.000000     0.000000     0.000000
   43     1.000000   180.000000    -0.000000    -0.707107     0.707107     0.000000     0.000000     0.000000
   44    -1.000000   180.000000    -0.000000    -0.707107     0.707107     0.000000     0.000000     0.000000
   45     1.000000   180.000000     0.707107    -0.707107     0.000000     0.000000     0.000000     0.000000
   46    -1.000000   180.000000     0.707107    -0.707107     0.000000     0.000000     0.000000     0.000000
   47     1.000000   180.000000     0.707107    -0.000000    -0.707107     0.000000     0.000000     0.000000
   48    -1.000000   180.000000     0.707107    -0.000000    -0.707107     0.000000     0.000000     0.000000
 
 Subroutine IBZKPT returns following result:
 ===========================================
 
 Found     10 irreducible k-points:
 
 Following reciprocal coordinates:
            Coordinates               Weight
  0.000000  0.000000  0.000000      1.000000
  0.200000 -0.000000  0.000000      6.000000
  0.400000 -0.000000  0.000000      6.000000
  0.200000  0.200000  0.000000     12.000000
  0.400000  0.200000  0.000000     24.000000
  0.400000  0.400000  0.000000     12.000000
  0.200000  0.200000  0.200000      8.000000
  0.400000  0.200000  0.200000     24.000000
  0.400000  0.400000  0.200000     24.000000
  0.400000  0.400000  0.400000      8.000000
 
 Following cartesian coordinates:
            Coordinates               Weight
  0.000000  0.000000  0.000000      1.000000
  0.042929 -0.000000  0.000000      6.000000
  0.085858 -0.000000  0.000000      6.000000
  0.042929  0.042929  0.000000     12.000000
  0.085858  0.042929  0.000000     24.000000
  0.085858  0.085858  0.000000     12.000000
  0.042929  0.042929  0.042929      8.000000
  0.085858  0.042929  0.042929     24.000000
  0.085858  0.085858  0.042929     24.000000
  0.085858  0.085858  0.085858      8.000000
 


--------------------------------------------------------------------------------------------------------




 Dimension of arrays:
   k-points           NKPTS =     10   k-points in BZ     NKDIM =     10   number of bands    NBANDS=     29
   number of dos      NEDOS =    301   number of ions     NIONS =     12
   non local maximal  LDIM  =      4   non local SUM 2l+1 LMDIM =      8
   total plane-waves  NPLWV =  13824
   max r-space proj   IRMAX =      1   max aug-charges    IRDMAX=   4573
   dimension x,y,z NGX =    24 NGY =   24 NGZ =   24
   dimension x,y,z NGXF=    48 NGYF=   48 NGZF=   48
   support grid    NGXF=    48 NGYF=   48 NGZF=   48
   ions per type =               8   4
 NGX,Y,Z   is equivalent  to a cutoff of   8.56,  8.56,  8.56 a.u.
 NGXF,Y,Z  is equivalent  to a cutoff of  17.13, 17.13, 17.13 a.u.


 I would recommend the setting:
   dimension x,y,z NGX =    21 NGY =   21 NGZ =   21
 SYSTEM =  Crystal                                 
 POSCAR =  Li2 O                                   

 Startparameter for this run:
   NWRITE =      2    write-flag & timer
   PREC   = normal    normal or accurate (medium, high low for compatibility)
   ISTART =      0    job   : 0-new  1-cont  2-samecut
   ICHARG =      2    charge: 1-file 2-atom 10-const
   ISPIN  =      2    spin polarized calculation?
   LNONCOLLINEAR =      F non collinear calculations
   LSORBIT =      F    spin-orbit coupling
   INIWAV =      1    electr: 0-lowe 1-rand  2-diag
   LASPH  =      F    aspherical Exc in radial PAW
   METAGGA=      F    non-selfconsistent MetaGGA calc.

 Electronic Relaxation 1
   ENCUT  =  350.0 eV  25.72 Ry    5.07 a.u.   7.11  7.11  7.11*2*pi/ulx,y,z
   ENINI  =  350.0     initial cutoff
   ENAUG  =  605.4 eV  augmentation charge cutoff
   NELM   =     60;   NELMIN=  4; NELMDL=-10     # of ELM steps 
   EDIFF  = 0.1E-04   stopping-criterion for ELM
   LREAL  =      F    real-space projection
   NLSPLINE    = F    spline interpolate recip. space projectors
   LCOMPAT=      F    compatible to vasp.4.4
   GGA_COMPAT  = T    GGA compatible to vasp.4.4-vasp.4.6
   LMAXPAW     = -100 max onsite density
   LMAXMIX     =    2 max onsite mixed and CHGCAR
   VOSKOWN=      0    Vosko Wilk Nusair interpolation
   ROPT   =    0.00000   0.00000
 Ionic relaxation
   EDIFFG = -.1E-01   stopping-criterion for IOM
   NSW    =    300    number of steps for IOM
   NBLOCK =      1;   KBLOCK =    300    inner block; outer block 
   IBRION =      2    ionic relax: 0-MD 1-quasi-New 2-CG
   NFREE  =      1    steps in history (QN), initial steepest desc. (CG)
   ISIF   =      2    stress and relaxation
   IWAVPR =     11    prediction:  0-non 1-charg 2-wave 3-comb
   ISYM   =      2    0-nonsym 1-usesym 2-fastsym
   LCORR  =      T    Harris-Foulkes like correction to forces

   POTIM  = 0.5000    time-step for ionic-motion
   TEIN   =    0.0    initial temperature
   TEBEG  =    0.0;   TEEND  =   0.0 temperature during run
   SMASS  =  -3.00    Nose mass-parameter (am)
   estimated Nose-frequenzy (Omega)   =  0.10E-29 period in steps =****** mass=  -0.496E-27a.u.
   SCALEE = 1.0000    scale energy and forces
   NPACO  =    256;   APACO  = 16.0  distance and # of slots for P.C.
   PSTRESS=    0.0 pullay stress

  Mass of Ions in am
   POMASS =   7.01 16.00
  Ionic Valenz
   ZVAL   =   1.00  6.00
  Atomic Wigner-Seitz radii
   RWIGS  =  -1.00 -1.00
  virtual crystal weights 
   VCA    =   1.00  1.00
   NELECT =      32.0000    total number of electrons
   NUPDOWN=      -1.0000    fix difference up-down

 DOS related values:
   EMIN   =  10.00;   EMAX   =-10.00  energy-range for DOS
   EFERMI =   0.00
   ISMEAR =     2;   SIGMA  =   0.10  broadening in eV -4-tet -1-fermi 0-gaus

 Electronic relaxation 2 (details)
   IALGO  =     68    algorithm
   LDIAG  =      T    sub-space diagonalisation (order eigenvalues)
   LSUBROT=      T    optimize rotation matrix (better conditioning)
   TURBO    =      0    0=normal 1=particle mesh
   IRESTART =      0    0=no restart 2=restart with 2 vectors
   NREBOOT  =      0    no. of reboots
   NMIN     =      0    reboot dimension
   EREF     =   0.00    reference energy to select bands
   IMIX   =      4    mixing-type and parameters
     AMIX     =   0.40;   BMIX     =  1.00
     AMIX_MAG =   1.60;   BMIX_MAG =  1.00
     AMIN     =   0.10
     WC   =   100.;   INIMIX=   1;  MIXPRE=   1;  MAXMIX= -45

 Intra band minimization:
   WEIMIN = 0.0010     energy-eigenvalue tresh-hold
   EBREAK =  0.86E-07  absolut break condition
   DEPER  =   0.30     relativ break condition  

   TIME   =   0.40     timestep for ELM

  volume/ion in A,a.u.               =       8.43        56.87
  Fermi-wavevector in a.u.,A,eV,Ry     =   1.115613  2.108203 16.933703  1.244592
  Thomas-Fermi vector in A             =   2.252219
 
 Write flags
   LWAVE  =      F    write WAVECAR
   LCHARG =      F    write CHGCAR
   LVTOT  =      F    write LOCPOT, total local potential
   LVHAR  =      F    write LOCPOT, Hartree potential only
   LELF   =      F    write electronic localiz. function (ELF)
   LORBIT =      0    0 simple, 1 ext, 2 COOP (PROOUT)


 Dipole corrections
   LMONO  =      F    monopole corrections only (constant potential shift)
   LDIPOL =      F    correct potential (dipole corrections)
   IDIPOL =      0    1-x, 2-y, 3-z, 4-all directions 
   EPSILON=  1.0000000 bulk dielectric constant

 Exchange correlation treatment:
   GGA     =    --    GGA type
   LEXCH   =     8    internal setting for exchange type
   VOSKOWN=      0    Vosko Wilk Nusair interpolation
   LHFCALC =     F    Hartree Fock is set to
[...]
     29      12.9558      0.00000

 spin component 2

 k-point   1 :       0.0000    0.0000    0.0000
  band No.  band energies     occupation 
      1     -14.6374      1.00000
      2     -14.3409      1.00000
      3     -14.3409      1.00000
      4     -14.3409      1.00000
      5      -0.7751      1.00000
      6      -0.7751      1.00000
      7      -0.7751      1.00000
      8      -0.5204      1.00000
      9      -0.5204      1.00000
     10      -0.5204      1.00000
     11      -0.5204      1.00000
     12      -0.5204      1.00000
     13      -0.5204      1.00000
     14       0.8471      0.86477
     15       0.8471      0.86477
     16       0.8471      0.86477
     17       5.7796      0.00000
     18       5.7796      0.00000
     19       5.7796      0.00000
     20       5.9194      0.00000
     21      12.6539      0.00000
     22      12.6539      0.00000
     23      12.6539      0.00000
     24      14.1923      0.00000
     25      14.1923      0.00000
     26      14.1923      0.00000
     27      14.1923      0.00000
     28      14.1923      0.00000
     29      14.1923      0.00000

 k-point   2 :       0.2000   -0.0000    0.0000
  band No.  band energies     occupation 
      1     -14.6140      1.00000
      2     -14.3692      1.00000
      3     -14.3327      1.00000
      4     -14.3327      1.00000
      5      -0.7444      1.00000
      6      -0.7444      1.00000
      7      -0.7021      1.00000
      8      -0.6591      1.00000
      9      -0.6591      1.00000
     10      -0.5354      1.00000
     11      -0.5354      1.00000
     12      -0.4032      1.00000
     13      -0.4032      1.00000
     14       0.5412      0.99997
     15       0.6903      0.99521
     16       0.6903      0.99521
     17       6.0727      0.00000
     18       6.2578      0.00000
     19       6.3681      0.00000
     20       6.3681      0.00000
     21      12.7448      0.00000
     22      12.7448      0.00000
     23      12.9281      0.00000
     24      13.2064      0.00000
     25      13.2064      0.00000
     26      13.9869      0.00000
     27      13.9869      0.00000
     28      14.2955      0.00000
     29      14.2955      0.00000

 k-point   3 :       0.4000   -0.0000    0.0000
  band No.  band energies     occupation 
      1     -14.5390      1.00000
      2     -14.4436      1.00000
      3     -14.3298      1.00000
      4     -14.3298      1.00000
      5      -0.9022      1.00000
      6      -0.9022      1.00000
      7      -0.6806      1.00000
      8      -0.6806      1.00000
      9      -0.6010      1.00000
     10      -0.6010      1.00000
     11      -0.4400      1.00000
     12      -0.0902      1.00000
     13      -0.0902      1.00000
     14       0.0119      1.00000
     15       0.3200      1.00000
     16       0.3200      1.00000
     17       6.6535      0.00000
     18       6.7684      0.00000
     19       7.6154      0.00000
     20       7.6154      0.00000
     21      11.4590      0.00000
     22      11.4590      0.00000
     23      13.0379      0.00000
     24      13.0379      0.00000
     25      13.5110      0.00000
     26      13.5110      0.00000
     27      13.6999      0.00000
     28      14.5466      0.00000
     29      14.5467      0.00000

 k-point   4 :       0.2000    0.2000    0.0000
  band No.  band energies     occupation 
      1     -14.5891      1.00000
      2     -14.3628      1.00000
      3     -14.3628      1.00000
      4     -14.3328      1.00000
      5      -0.9718      1.00000
      6      -0.9077      1.00000
      7      -0.9077      1.00000
      8      -0.7107      1.00000
      9      -0.4344      1.00000
     10      -0.4344      1.00000
     11      -0.3287      1.00000
     12      -0.3287      1.00000
     13      -0.3166      1.00000
     14       0.1095      1.00000
     15       0.5460      0.99996
     16       0.7737      1.04454
     17       6.5850      0.00000
     18       6.6312      0.00000
     19       6.6312      0.00000
     20       6.8493      0.00000
     21      12.6282      0.00000
     22      12.7652      0.00000
     23      12.8545      0.00000
     24      12.9727      0.00000
     25      12.9727      0.00000
     26      13.1937      0.00000
     27      14.0498      0.00000
     28      14.0894      0.00000
     29      14.0894      0.00000

 k-point   5 :       0.4000    0.2000    0.0000
  band No.  band energies     occupation 
      1     -14.5181      1.00000
      2     -14.4292      1.00000
      3     -14.3487      1.00000
      4     -14.3376      1.00000
      5      -1.2122      1.00000
      6      -1.1743      1.00000
      7      -0.8173      1.00000
      8      -0.6270      1.00000
      9      -0.5220      1.00000
     10      -0.4463      1.00000
     11      -0.2520      1.00000
     12      -0.2280      1.00000
     13      -0.1410      1.00000
     14       0.1390      1.00000
     15       0.2273      1.00000
     16       0.5508      0.99995
     17       7.1389      0.00000
     18       7.1428      0.00000
     19       7.8473      0.00000
     20       7.9170      0.00000
     21      11.3671      0.00000
     22      11.3695      0.00000
     23      12.4719      0.00000
     24      12.5715      0.00000
     25      13.1619      0.00000
     26      13.6349      0.00000
     27      14.1037      0.00000
     28      14.2217      0.00000
     29      14.3633      0.00000

 k-point   6 :       0.4000    0.4000    0.0000
  band No.  band energies     occupation 
      1     -14.4623      1.00000
      2     -14.3987      1.00000
      3     -14.3987      1.00000
      4     -14.3640      1.00000
      5      -1.3959      1.00000
      6      -1.2429      1.00000
      7      -1.2429      1.00000
      8      -0.9704      1.00000
      9      -0.4870      1.00000
     10      -0.3009      1.00000
     11      -0.3009      1.00000
     12      -0.0175      1.00000
     13       0.1202      1.00000
     14       0.2438      1.00000
     15       0.2438      1.00000
     16       0.5587      0.99992
     17       7.9301      0.00000
     18       8.2283      0.00000
     19       8.2283      0.00000
     20       8.5636      0.00000
     21      10.9227      0.00000
     22      11.2438      0.00000
     23      11.2438      0.00000
     24      11.6313      0.00000
     25      13.4885      0.00000
     26      13.9314      0.00000
     27      13.9414      0.00000
     28      13.9414      0.00000
     29      14.3530      0.00000

 k-point   7 :       0.2000    0.2000    0.2000
  band No.  band energies     occupation 
      1     -14.5623      1.00000
      2     -14.3579      1.00000
      3     -14.3579      1.00000
      4     -14.3579      1.00000
      5      -1.1457      1.00000
      6      -1.1457      1.00000
      7      -1.1457      1.00000
      8      -0.3632      1.00000
      9      -0.3632      1.00000
     10      -0.3632      1.00000
     11      -0.2805      1.00000
     12      -0.2249      1.00000
     13      -0.2249      1.00000
     14      -0.2249      1.00000
     15       0.6677      0.99566
     16       0.6677      0.99566
     17       6.8937      0.00000
     18       7.0987      0.00000
     19       7.0987      0.00000
     20       7.0987      0.00000
     21      12.5651      0.00000
     22      12.5833      0.00000
     23      12.5833      0.00000
     24      12.5833      0.00000
     25      13.0618      0.00000
     26      13.0618      0.00000
     27      13.7992      0.00000
     28      13.7992      0.00000
     29      13.7992      0.00000

 k-point   8 :       0.4000    0.2000    0.2000
  band No.  band energies     occupation 
      1     -14.4991      1.00000
      2     -14.4228      1.00000
      3     -14.3526      1.00000
      4     -14.3526      1.00000
      5      -1.4123      1.00000
      6      -1.4123      1.00000
      7      -1.1413      1.00000
      8      -0.8136      1.00000
      9      -0.3223      1.00000
     10      -0.3223      1.00000
     11      -0.1122      1.00000
     12      -0.1122      1.00000
     13       0.0309      1.00000
     14       0.1293      1.00000
     15       0.3762      1.00000
     16       0.5256      0.99999
     17       7.4775      0.00000
     18       7.5505      0.00000
     19       8.1529      0.00000
     20       8.1529      0.00000
     21      11.2819      0.00000
     22      11.2819      0.00000
     23      12.2618      0.00000
     24      12.3302      0.00000
     25      13.0242      0.00000
     26      13.3220      0.00000
     27      13.6509      0.00000
     28      13.9443      0.00000
     29      13.9444      0.00000

 k-point   9 :       0.4000    0.4000    0.2000
  band No.  band energies     occupation 
      1     -14.4505      1.00000
      2     -14.3946      1.00000
      3     -14.3946      1.00000
      4     -14.3704      1.00000
      5      -1.6134      1.00000
      6      -1.5072      1.00000
      7      -1.5072      1.00000
      8      -1.2853      1.00000
      9      -0.1649      1.00000
     10      -0.0194      1.00000
     11      -0.0194      1.00000
     12       0.1669      1.00000
     13       0.2297      1.00000
     14       0.2588      1.00000
     15       0.2588      1.00000
     16       0.5266      0.99999
     17       8.2208      0.00000
     18       8.5413      0.00000
     19       8.5413      0.00000
     20       8.8358      0.00000
     21      10.8451      0.00000
     22      11.1789      0.00000
     23      11.1789      0.00000
     24      11.6294      0.00000
     25      13.2193      0.00000
     26      13.4812      0.00000
     27      13.4814      0.00000
     28      13.5096      0.00000
     29      13.9385      0.00000

 k-point  10 :       0.4000    0.4000    0.4000
  band No.  band energies     occupation 
      1     -14.4195      1.00000
      2     -14.3918      1.00000
      3     -14.3918      1.00000
      4     -14.3918      1.00000
      5      -1.7980      1.00000
      6      -1.7980      1.00000
      7      -1.7980      1.00000
      8      -1.6749      1.00000
      9       0.2634      1.00000
     10       0.2634      1.00000
     11       0.2634      1.00000
     12       0.2888      1.00000
     13       0.2888      1.00000
     14       0.2888      1.00000
     15       0.4341      1.00000
     16       0.4341      1.00000
     17       8.9385      0.00000
     18       9.3264      0.00000
     19       9.3264      0.00000
     20       9.3264      0.00000
     21      10.7379      0.00000
     22      10.7379      0.00000
     23      10.7379      0.00000
     24      11.2969      0.00000
     25      12.8930      0.00000
     26      12.8930      0.00000
     27      12.9557      0.00000
     28      12.9557      0.00000
     29      12.9559      0.00000


--------------------------------------------------------------------------------------------------------


 soft charge-density along one line, spin component           1
         0         1         2         3         4         5         6         7         8         9
 total charge-density along one line
 
 soft charge-density along one line, spin component           2
         0         1         2         3         4         5         6         7         8         9
 total charge-density along one line
 
 pseudopotential strength for first ion, spin component:           1
  1.182   5.302  -0.000  -0.000  -0.000
  5.302  22.720  -0.000  -0.000  -0.000
 -0.000  -0.000  -0.321   0.000   0.000
 -0.000  -0.000   0.000  -0.321   0.000
 -0.000  -0.000   0.000   0.000  -0.321
 pseudopotential strength for first ion, spin component:           2
  1.182   5.302  -0.000  -0.000  -0.000
  5.302  22.721  -0.000  -0.000  -0.000
 -0.000  -0.000  -0.321   0.000   0.000
 -0.000  -0.000   0.000  -0.321   0.000
 -0.000  -0.000   0.000   0.000  -0.321
 total augmentation occupancy for first ion, spin component:           1
  1.276  -0.031   0.000  -0.000   0.000
 -0.031   0.001  -0.000   0.000   0.000
 -0.000   0.000   0.118   0.000   0.000
  0.000   0.000   0.000   0.118   0.000
  0.000   0.000   0.000   0.000   0.118
 total augmentation occupancy for first ion, spin component:           2
 -0.000   0.000   0.000   0.000  -0.000
  0.000  -0.000   0.000  -0.000   0.000
  0.000   0.000   0.000   0.000   0.000
  0.000  -0.000   0.000   0.000   0.000
 -0.000   0.000   0.000   0.000   0.000


------------------------ aborting loop because EDIFF is reached ----------------------------------------


    CHARGE:  cpu time    0.12: real time    0.12
    FORLOC:  cpu time    0.02: real time    0.02
    FORNL :  cpu time    0.97: real time    0.97
    STRESS:  cpu time    1.20: real time    1.20
    FORCOR:  cpu time    0.20: real time    0.20
    FORHAR:  cpu time    0.03: real time    0.03
    MIXING:  cpu time    0.00: real time    0.01

  FORCE on cell =-STRESS in cart. coord.  units (eV):
  Direction    XX          YY          ZZ          XY          YZ          ZX
  --------------------------------------------------------------------------------------
  Alpha Z    35.94769    35.94769    35.94769
  Ewald    -403.15199  -403.15199  -403.15199     0.00000     0.00000     0.00000
  Hartree   217.08892   217.08892   217.08892    -0.00000    -0.00000    -0.00000
  E(xc)    -140.66463  -140.66463  -140.66463     0.00000     0.00000    -0.00000
  Local    -217.80825  -217.80825  -217.80825    -0.00000    -0.00000    -0.00000
  n-local   -85.79504   -87.17046   -88.36258     0.27306     0.18253     0.13714
  augment    27.22017    27.22017    27.22017    -0.00000     0.00000    -0.00000
  Kinetic   553.20341   561.55442   566.00881    -1.66550    -1.07218    -0.89082
  Fock        0.00000     0.00000     0.00000     0.00000     0.00000     0.00000
  -------------------------------------------------------------------------------------
  Total      -8.22190    -8.22190    -8.22190    -0.00000    -0.00000    -0.00000
  in kB    -130.27135  -130.27135  -130.27135    -0.00000    -0.00000    -0.00000
  external pressure =     -130.27 kB  Pullay stress =        0.00 kB


 VOLUME and BASIS-vectors are now :
 -----------------------------------------------------------------------------
  energy-cutoff  :      350.00
  volume of cell :      101.12
      direct lattice vectors                 reciprocal lattice vectors
     4.658842000  0.000000000  0.000000000     0.214645614 -0.000000000  0.000000000
     0.000000000  4.658842000  0.000000000     0.000000000  0.214645614  0.000000000
     0.000000000  0.000000000  4.658842000    -0.000000000 -0.000000000  0.214645614

  length of vectors
     4.658842000  4.658842000  4.658842000     0.214645614  0.214645614  0.214645614


 FORCES acting on ions
    electron-ion (+dipol)            ewald-force                    non-local-force                 convergence-correction
 -----------------------------------------------------------------------------------------------
   0.121E-14 0.345E-15 -.283E-13   0.888E-14 0.533E-14 0.355E-14   -.732E-17 0.358E-17 -.379E-17   -.129E-14 0.300E-15 -.359E-15
   0.766E-16 -.529E-14 -.308E-13   0.711E-14 0.178E-14 -.107E-13   -.158E-18 0.217E-18 -.651E-18   -.116E-14 -.301E-15 -.336E-15
   0.502E-15 -.113E-14 -.256E-13   0.888E-14 0.533E-14 0.355E-14   -.385E-17 -.103E-17 -.661E-17   -.134E-14 -.307E-15 0.340E-15
   -.601E-15 -.289E-15 -.223E-13   0.711E-14 0.178E-14 -.107E-13   0.678E-17 -.385E-17 0.217E-18   -.116E-14 0.302E-15 0.363E-15
   -.340E-14 -.146E-14 -.196E-13   0.888E-14 0.533E-14 0.355E-14   0.484E-18 -.287E-17 -.596E-17   0.115E-14 0.304E-15 0.361E-15
   -.314E-14 -.122E-13 -.333E-14   0.888E-14 0.178E-14 -.107E-13   0.570E-17 0.309E-17 -.163E-17   0.128E-14 -.300E-15 0.343E-15
   -.384E-14 -.423E-13 -.356E-13   0.888E-14 0.533E-14 0.355E-14   -.125E-17 0.228E-17 -.726E-17   0.115E-14 -.300E-15 -.341E-15
   -.319E-14 0.525E-13 -.534E-13   0.888E-14 0.178E-14 -.107E-13   0.244E-17 -.651E-18 -.217E-17   0.123E-14 0.305E-15 -.360E-15
   -.187E-14 -.139E-14 -.183E-14   -.178E-13 -.705E-14 0.678E-14   0.224E-23 0.165E-23 0.165E-23   0.778E-14 -.782E-14 0.145E-14
   -.234E-14 0.187E-12 0.187E-12   -.268E-13 -.780E-14 0.798E-14   0.206E-23 0.165E-23 -.248E-23   0.859E-14 -.491E-14 0.154E-14
   0.187E-12 -.143E-14 -.166E-11   -.176E-13 -.668E-14 0.689E-14   -.450E-24 -.165E-23 0.000E+00   -.330E-14 0.973E-15 0.675E-14
   0.188E-12 -.141E-11 -.162E-11   -.141E-13 -.742E-14 0.761E-14   -.187E-23 -.165E-23 -.165E-23   -.444E-14 -.622E-14 -.596E-14
 -----------------------------------------------------------------------------------------------
   0.358E-12 -.123E-11 -.332E-11   -.879E-14 -.532E-15 0.845E-15   0.282E-17 0.759E-18 -.279E-16   0.849E-14 -.180E-13 0.378E-14
 
 
 POSITION                                       TOTAL-FORCE (eV/Angst)
 -----------------------------------------------------------------------------------
      1.16471      1.16471      3.49413         0.000000      0.000000      0.000000
      1.16471      3.49413      3.49413         0.000000      0.000000      0.000000
      1.16471      3.49413      1.16471         0.000000      0.000000      0.000000
      1.16471      1.16471      1.16471         0.000000      0.000000      0.000000
      3.49413      1.16471      1.16471         0.000000      0.000000      0.000000
      3.49413      3.49413      1.16471         0.000000      0.000000      0.000000
      3.49413      3.49413      3.49413         0.000000      0.000000      0.000000
      3.49413      1.16471      3.49413         0.000000      0.000000      0.000000
      0.00000      0.00000      0.00000        -0.000000     -0.000000     -0.000000
      0.00000      2.32942      2.32942         0.000000      0.000000     -0.000000
      2.32942      0.00000      2.32942        -0.000000     -0.000000     -0.000000
      2.32942      2.32942      0.00000         0.000000     -0.000000      0.000000
 -----------------------------------------------------------------------------------
    total drift:                                0.000000     -0.000000     -0.000000


--------------------------------------------------------------------------------------------------------



  FREE ENERGIE OF THE ION-ELECTRON SYSTEM (eV)
  ---------------------------------------------------
  free  energy   TOTEN  =       -57.44578335 eV

  energy  without entropy=      -57.44617306  energy(sigma->0) =      -57.44588078
 


--------------------------------------------------------------------------------------------------------


    POTLOK:  cpu time    0.26: real time    0.26


--------------------------------------------------------------------------------------------------------




--------------------------------------------------------------------------------------------------------


  
 reached required accuracy - stopping structural energy minimisation
     LOOP+:  cpu time   42.72: real time   42.76
    4ORBIT:  cpu time    0.00: real time    0.00

 total amount of memory used by VASP on root node    61222. kBytes
========================================================================

   base      :      30000. kBytes
   nonl-proj :       2231. kBytes
   fftplans  :       3916. kBytes
   grid      :      10266. kBytes
   one-center:         73. kBytes
   wavefun   :      14736. kBytes
 
  
  
 General timing and accounting informations for this job:
 ========================================================
  
                  Total CPU time used (sec):       43.504
                            User time (sec):       43.472
                          System time (sec):        0.032
                         Elapsed time (sec):       43.538
  
                   Maximum memory used (kb):       94192.
                   Average memory used (kb):           0.
  
                          Minor page faults:        31959
                          Major page faults:            0
                 Voluntary context switches:            0
