Crystal                                 
           1
     4.658842    0.000000    0.000000
     0.000000    4.658842    0.000000
     0.000000    0.000000    4.658842
   Li   O 
   8   4
Direct configuration=     1
   0.25000000  0.25000000  0.75000000
   0.25000000  0.75000000  0.75000000
   0.25000000  0.75000000  0.25000000
   0.25000000  0.25000000  0.25000000
   0.75000000  0.25000000  0.25000000
   0.75000000  0.75000000  0.25000000
   0.75000000  0.75000000  0.75000000
   0.75000000  0.25000000  0.75000000
   0.00000000  0.00000000  0.00000000
   0.00000000  0.50000000  0.50000000
   0.50000000  0.00000000  0.50000000
   0.50000000  0.50000000  0.00000000
