 vasp.5.3.3 18Dez12 (build Sep  7 2015 22:32:56) complex                        
  
 executed on             LinuxIFC date 2002.02.05  00:42:26
 running on    1 total cores
 distrk:  each k-point on    1 cores,    1 groups
 distr:  one band on NCORES_PER_BAND=   1 cores,    1 groups


--------------------------------------------------------------------------------------------------------


 INCAR:
 POTCAR:    PAW_PBE C 08Apr2002                   
 POTCAR:    PAW_PBE O 08Apr2002                   
 POTCAR:    PAW_PBE C 08Apr2002                   
   VRHFIN =C: s2p2                                                              
   LEXCH  = PE                                                                  
   EATOM  =   147.1560 eV,   10.8157 Ry                                         
                                                                                
   TITEL  = PAW_PBE C 08Apr2002                                                 
   LULTRA =        F    use ultrasoft PP ?                                      
   IUNSCR =        1    unscreen: 0-lin 1-nonlin 2-no                           
   RPACOR =    1.200    partial core radius                                     
   POMASS =   12.011; ZVAL   =    4.000    mass and valenz                      
   RCORE  =    1.500    outmost cutoff radius                                   
   RWIGS  =    1.630; RWIGS  =    0.863    wigner-seitz radius (au A)           
   ENMAX  =  400.000; ENMIN  =  300.000 eV                                      
   ICORE  =        2    local potential                                         
   LCOR   =        T    correct aug charges                                     
   LPAW   =        T    paw PP                                                  
   EAUG   =  644.873                                                            
   DEXC   =    0.000                                                            
   RMAX   =    1.529    core radius for proj-oper                               
   RAUG   =    1.300    factor for augmentation sphere                          
   RDEP   =    1.501    radius for radial grids                                 
   RDEPT  =    1.300    core radius for aug-charge                              
                                                                                
   Atomic configuration                                                         
    4 entries                                                                   
     n  l   j            E        occ.                                          
     1  0  0.50      -273.3789   2.0000                                         
     2  0  0.50       -13.7508   2.0000                                         
     2  1  0.50        -5.2854   2.0000                                         
     3  2  1.50        -5.4423   0.0000                                         
   Description                                                                  
     l       E           TYP  RCUT    TYP  RCUT                                 
     0    -13.7508458     23  1.200                                             
     0     -8.2022199     23  1.200                                             
     1     -5.2854383     23  1.500                                             
     1     34.0145650     23  1.500                                             
     2     -5.4423304      7  1.500                                             
  local pseudopotential read in
  partial core-charges read in
  partial kinetic energy density read in
  atomic valenz-charges read in
  non local Contribution for L=           0  read in
    real space projection operators read in
  non local Contribution for L=           0  read in
    real space projection operators read in
  non local Contribution for L=           1  read in
    real space projection operators read in
  non local Contribution for L=           1  read in
    real space projection operators read in
    PAW grid and wavefunctions read in
 
   number of l-projection  operators is LMAX  =           4
   number of lm-projection operators is LMMAX =           8
 
 POTCAR:    PAW_PBE O 08Apr2002                   
   VRHFIN =O: s2p4                                                              
   LEXCH  = PE                                                                  
   EATOM  =   432.3788 eV,   31.7789 Ry                                         
                                                                                
   TITEL  = PAW_PBE O 08Apr2002                                                 
   LULTRA =        F    use ultrasoft PP ?                                      
   IUNSCR =        1    unscreen: 0-lin 1-nonlin 2-no                           
   RPACOR =    1.200    partial core radius                                     
   POMASS =   16.000; ZVAL   =    6.000    mass and valenz                      
   RCORE  =    1.520    outmost cutoff radius                                   
   RWIGS  =    1.550; RWIGS  =    0.820    wigner-seitz radius (au A)           
   ENMAX  =  400.000; ENMIN  =  300.000 eV                                      
   ICORE  =        2    local potential                                         
   LCOR   =        T    correct aug charges                                     
   LPAW   =        T    paw PP                                                  
   EAUG   =  605.392                                                            
   DEXC   =    0.000                                                            
   RMAX   =    1.553    core radius for proj-oper                               
   RAUG   =    1.300    factor for augmentation sphere                          
   RDEP   =    1.550    radius for radial grids                                 
   RDEPT  =    1.329    core radius for aug-charge                              
                                                                                
   Atomic configuration                                                         
    4 entries                                                                   
     n  l   j            E        occ.                                          
     1  0  0.50      -514.6923   2.0000                                         
     2  0  0.50       -23.9615   2.0000                                         
     2  1  0.50        -9.0305   4.0000                                         
     3  2  1.50        -9.5241   0.0000                                         
   Description                                                                  
     l       E           TYP  RCUT    TYP  RCUT                                 
     0    -23.9615318     23  1.200                                             
     0     -9.5240782     23  1.200                                             
     1     -9.0304911     23  1.520                                             
     1      8.1634956     23  1.520                                             
     2     -9.5240782      7  1.500                                             
  local pseudopotential read in
  partial core-charges read in
  partial kinetic energy density read in
  kinetic energy density of atom read in
  atomic valenz-charges read in
  non local Contribution for L=           0  read in
    real space projection operators read in
  non local Contribution for L=           0  read in
    real space projection operators read in
  non local Contribution for L=           1  read in
    real space projection operators read in
  non local Contribution for L=           1  read in
    real space projection operators read in
    PAW grid and wavefunctions read in
 
   number of l-projection  operators is LMAX  =           4
   number of lm-projection operators is LMMAX =           8
 
  PAW_PBE C 08Apr2002                   :
 energy of atom  1       EATOM= -147.1560
 kinetic energy error for atom=    0.0288 (will be added to EATOM!!)
  PAW_PBE O 08Apr2002                   :
 energy of atom  2       EATOM= -432.3788
 kinetic energy error for atom=    0.1156 (will be added to EATOM!!)
 
 
 POSCAR: CO molecule in a box                    
  positions in cartesian coordinates
  No initial velocities read in
 exchange correlation table for  LEXCH =        8
   RHO(1)=    0.500       N(1)  =     2000
   RHO(2)=  100.500       N(2)  =     4000
 


--------------------------------------------------------------------------------------------------------


 ion  position               nearest neighbor table
   1  0.000  0.000  0.000-   2 1.20
   2  0.000  0.000  0.114-   1 1.20
 
  LATTYP: Found a simple orthorhombic cell.
 ALAT       =    10.1000000000
 B/A-ratio  =     1.0198019802
 C/A-ratio  =     1.0396039604
  
  Lattice vectors:
  
 A1 = (  10.1000000000,   0.0000000000,   0.0000000000)
 A2 = (   0.0000000000,  10.3000000000,   0.0000000000)
 A3 = (   0.0000000000,   0.0000000000,  10.5000000000)


Analysis of symmetry for initial positions (statically):
=====================================================================
 Subroutine PRICEL returns:
 Original cell was already a primitive cell.
 

 Routine SETGRP: Setting up the symmetry group for a 
 simple orthorhombic supercell.


 Subroutine GETGRP returns: Found  4 space group operations
 (whereof  4 operations were pure point group operations)
 out of a pool of  8 trial point group operations.


The static configuration has the point symmetry C_2v.


Analysis of symmetry for dynamics (positions and initial velocities):
=====================================================================
 Subroutine PRICEL returns:
 Original cell was already a primitive cell.
 

 Routine SETGRP: Setting up the symmetry group for a 
 simple orthorhombic supercell.


 Subroutine GETGRP returns: Found  4 space group operations
 (whereof  4 operations were pure point group operations)
 out of a pool of  8 trial point group operations.


The dynamic configuration has the point symmetry C_2v.


Analysis of constrained symmetry for selective dynamics:
=====================================================================
 Subroutine PRICEL returns:
 Original cell was already a primitive cell.
 

 Routine SETGRP: Setting up the symmetry group for a 
 simple orthorhombic supercell.


 Subroutine GETGRP returns: Found  4 space group operations
 (whereof  4 operations were pure point group operations)
 out of a pool of  8 trial point group operations.


The constrained configuration has the point symmetry C_2v.


 irot  :   1
 --------------------------------------------------------------------
 isymop:   1   0   0
           0   1   0
           0   0   1

 gtrans:     0.0000000     0.0000000     0.0000000

 ptrans:     0.0000000     0.0000000     0.0000000
 rotmap:
 (   1->   1)  (   2->   2) 


 irot  :   2
 --------------------------------------------------------------------
 isymop:  -1   0   0
           0  -1   0
           0   0   1

 gtrans:     0.0000000     0.0000000     0.0000000

 ptrans:     0.0000000     0.0000000     0.0000000
 rotmap:
 (   1->   1)  (   2->   2) 


 irot  :   3
 --------------------------------------------------------------------
 isymop:   1   0   0
           0  -1   0
           0   0   1

 gtrans:     0.0000000     0.0000000     0.0000000

 ptrans:     0.0000000     0.0000000     0.0000000
 rotmap:
 (   1->   1)  (   2->   2) 


 irot  :   4
 --------------------------------------------------------------------
 isymop:  -1   0   0
           0   1   0
           0   0   1

 gtrans:     0.0000000     0.0000000     0.0000000

 ptrans:     0.0000000     0.0000000     0.0000000
 rotmap:
 (   1->   1)  (   2->   2) 
 
 
 KPOINTS: Gamma-point only                        

Automatic generation of k-mesh.
Space group operators:
 irot       det(A)        alpha          n_x          n_y          n_z        tau_x        tau_y        tau_z
    1     1.000000     0.000000     1.000000     0.000000     0.000000     0.000000     0.000000     0.000000
    2     1.000000   180.000000     0.000000     0.000000     1.000000     0.000000     0.000000     0.000000
    3    -1.000000   180.000000     0.000000     1.000000     0.000000     0.000000     0.000000     0.000000
    4    -1.000000   180.000000     1.000000     0.000000     0.000000     0.000000     0.000000     0.000000
 
 Subroutine IBZKPT returns following result:
 ===========================================
 
 Found      1 irreducible k-points:
 
 Following reciprocal coordinates:
            Coordinates               Weight
  0.000000  0.000000  0.000000      1.000000
 
 Following cartesian coordinates:
            Coordinates               Weight
  0.000000  0.000000  0.000000      1.000000
 


--------------------------------------------------------------------------------------------------------




 Dimension of arrays:
   k-points           NKPTS =      1   k-points in BZ     NKDIM =      1   number of bands    NBANDS=      9
   number of dos      NEDOS =    301   number of ions     NIONS =      2
   non local maximal  LDIM  =      4   non local SUM 2l+1 LMDIM =      8
   total plane-waves  NPLWV = 135000
   max r-space proj   IRMAX =      1   max aug-charges    IRDMAX=   1803
   dimension x,y,z NGX =    50 NGY =   50 NGZ =   54
   dimension x,y,z NGXF=   100 NGYF=  100 NGZF=  108
   support grid    NGXF=   100 NGYF=  100 NGZF=  108
   ions per type =               1   1
 NGX,Y,Z   is equivalent  to a cutoff of   8.23,  8.07,  8.55 a.u.
 NGXF,Y,Z  is equivalent  to a cutoff of  16.46, 16.14, 17.10 a.u.


 I would recommend the setting:
   dimension x,y,z NGX =    49 NGY =   50 NGZ =   51
 SYSTEM =  Hello World                             
 POSCAR =  CO molecule in a box                    

 Startparameter for this run:
   NWRITE =      2    write-flag & timer
   PREC   = normal    normal or accurate (medium, high low for compatibility)
   ISTART =      0    job   : 0-new  1-cont  2-samecut
   ICHARG =      2    charge: 1-file 2-atom 10-const
   ISPIN  =      1    spin polarized calculation?
   LNONCOLLINEAR =      F non collinear calculations
   LSORBIT =      F    spin-orbit coupling
   INIWAV =      1    electr: 0-lowe 1-rand  2-diag
   LASPH  =      F    aspherical Exc in radial PAW
   METAGGA=      F    non-selfconsistent MetaGGA calc.

 Electronic Relaxation 1
   ENCUT  =  400.0 eV  29.40 Ry    5.42 a.u.  16.47 16.80 17.12*2*pi/ulx,y,z
   ENINI  =  400.0     initial cutoff
   ENAUG  =  644.9 eV  augmentation charge cutoff
   NELM   =     60;   NELMIN=  2; NELMDL=  0     # of ELM steps 
   EDIFF  = 0.1E-03   stopping-criterion for ELM
   LREAL  =      F    real-space projection
   NLSPLINE    = F    spline interpolate recip. space projectors
   LCOMPAT=      F    compatible to vasp.4.4
   GGA_COMPAT  = T    GGA compatible to vasp.4.4-vasp.4.6
   LMAXPAW     = -100 max onsite density
   LMAXMIX     =    2 max onsite mixed and CHGCAR
   VOSKOWN=      0    Vosko Wilk Nusair interpolation
   ROPT   =    0.00000   0.00000
 Ionic relaxation
   EDIFFG = -.1E-01   stopping-criterion for IOM
   NSW    =    100    number of steps for IOM
   NBLOCK =      1;   KBLOCK =    100    inner block; outer block 
   IBRION =      1    ionic relax: 0-MD 1-quasi-New 2-CG
   NFREE  =      0    steps in history (QN), initial steepest desc. (CG)
   ISIF   =      2    stress and relaxation
   IWAVPR =     11    prediction:  0-non 1-charg 2-wave 3-comb
   ISYM   =      2    0-nonsym 1-usesym 2-fastsym
   LCORR  =      T    Harris-Foulkes like correction to forces

   POTIM  = 0.5000    time-step for ionic-motion
   TEIN   =    0.0    initial temperature
   TEBEG  =    0.0;   TEEND  =   0.0 temperature during run
   SMASS  =  -3.00    Nose mass-parameter (am)
   estimated Nose-frequenzy (Omega)   =  0.10E-29 period in steps =****** mass=  -0.233E-26a.u.
   SCALEE = 1.0000    scale energy and forces
   NPACO  =    256;   APACO  = 16.0  distance and # of slots for P.C.
   PSTRESS=    0.0 pullay stress

  Mass of Ions in am
   POMASS =  12.01 16.00
  Ionic Valenz
   ZVAL   =   4.00  6.00
  Atomic Wigner-Seitz radii
   RWIGS  =  -1.00 -1.00
  virtual crystal weights 
   VCA    =   1.00  1.00
   NELECT =      10.0000    total number of electrons
   NUPDOWN=      -1.0000    fix difference up-down

 DOS related values:
   EMIN   =  10.00;   EMAX   =-10.00  energy-range for DOS
   EFERMI =   0.00
   ISMEAR =     0;   SIGMA  =   0.20  broadening in eV -4-tet -1-fermi 0-gaus

 Electronic relaxation 2 (details)
   IALGO  =     68    algorithm
   LDIAG  =      T    sub-space diagonalisation (order eigenvalues)
   LSUBROT=      T    optimize rotation matrix (better conditioning)
   TURBO    =      0    0=normal 1=particle mesh
   IRESTART =      0    0=no restart 2=restart with 2 vectors
   NREBOOT  =      0    no. of reboots
   NMIN     =      0    reboot dimension
   EREF     =   0.00    reference energy to select bands
   IMIX   =      4    mixing-type and parameters
     AMIX     =   0.40;   BMIX     =  1.00
     AMIX_MAG =   1.60;   BMIX_MAG =  1.00
     AMIN     =   0.10
     WC   =   100.;   INIMIX=   1;  MIXPRE=   1;  MAXMIX= -45

 Intra band minimization:
   WEIMIN = 0.0010     energy-eigenvalue tresh-hold
   EBREAK =  0.28E-05  absolut break condition
   DEPER  =   0.30     relativ break condition  

   TIME   =   0.40     timestep for ELM

  volume/ion in A,a.u.               =     546.16      3685.65
  Fermi-wavevector in a.u.,A,eV,Ry     =   0.342472  0.647179  1.595791  0.117287
  Thomas-Fermi vector in A             =   1.247862
 
 Write flags
   LWAVE  =      F    write WAVECAR
   LCHARG =      F    write CHGCAR
   LVTOT  =      F    write LOCPOT, total local potential
   LVHAR  =      F    write LOCPOT, Hartree potential only
   LELF   =      F    write electronic localiz. function (ELF)
   LORBIT =      0    0 simple, 1 ext, 2 COOP (PROOUT)


 Dipole corrections
   LMONO  =      F    monopole corrections only (constant potential shift)
   LDIPOL =      F    correct potential (dipole corrections)
   IDIPOL =      0    1-x, 2-y, 3-z, 4-all directions 
   EPSILON=  1.0000000 bulk dielectric constant

 Exchange correlation treatment:
   GGA     =    --    GGA type
   LEXCH   =     8    internal setting for exchange type
   VOSKOWN=      0    Vosko Wilk Nusair interpolation
   LHFCALC =     F    Hartree Fock is set to
   LHFONE  =     F    Hartree Fock one center treatment
   AEXX    =    0.0000 exact exchange contribution

 Linear response parameters
   LEPSILON=     F    determine dielectric tensor
   LRPA    =     F    only Hartree local field effects (RPA)
   LNABLA  =     F    use nabla operator in PAW spheres
   LVEL    =     F    velocity operator in full k-point grid
   LINTERFAST=   F  fast interpolation
   KINTER  =     0    interpolate to denser k-point grid
   CSHIFT  =0.1000    complex shift for real part using Kramers Kronig
   OMEGAMAX=  -1.0    maximum frequency
   DEG_THRESHOLD= 0.2000000E-02 threshold for treating states as degnerate
   RTIME   =    0.100 relaxation time in fs

 Orbital magnetization related:
   ORBITALMAG=     F  switch on orbital magnetization
   LCHIMAG   =     F  perturbation theory with respect to B field
   DQ        =  0.001000  dq finite difference perturbation B field



--------------------------------------------------------------------------------------------------------


 quasi-Newton-method for relaxation of ions
   using selective dynamics as specified on POSCAR
   WARNING: If single coordinates had been selected the selection of coordinates
            is made according to the corresponding   d i r e c t   coordinates!
            Don't support selection of single cartesian coordinates -- sorry ...
  !
 charge density and potential will be updated during run
 non-spin polarized calculation
 RMM-DIIS sequential band-by-band and
  variant of blocked Davidson during initial phase
 perform sub-space diagonalisation
    before iterative eigenvector-optimisation
 modified Broyden-mixing scheme, WC =      100.0
 initial mixing is a Kerker type mixing with AMIX =  0.4000 and BMIX =      1.0000
 Hartree-type preconditioning will be used
 using additional bands            4
 reciprocal scheme for non local part
 use partial core corrections
 calculate Harris-corrections to forces 
   (improved forces if not selfconsistent)
 use gradient corrections 
 use of overlap-Matrix (Vanderbilt PP)
 Gauss-broadening in eV      SIGMA  =   0.20


--------------------------------------------------------------------------------------------------------


  energy-cutoff  :      400.00
  volume of cell :     1092.32
      direct lattice vectors                 reciprocal lattice vectors
    10.100000000  0.000000000  0.000000000     0.099009901  0.000000000  0.000000000
     0.000000000 10.300000000  0.000000000     0.000000000  0.097087379  0.000000000
     0.000000000  0.000000000 10.500000000     0.000000000  0.000000000  0.095238095

  length of vectors
    10.100000000 10.300000000 10.500000000     0.099009901  0.097087379  0.095238095


 
 k-points in units of 2pi/SCALE and weight: Gamma-point only                        
   0.00000000  0.00000000  0.00000000       1.000
 
 k-points in reciprocal lattice and weights: Gamma-point only                        
   0.00000000  0.00000000  0.00000000       1.000
 
 position of ions in fractional coordinates (direct lattice) 
   0.00000000  0.00000000  0.00000000
   0.00000000  0.00000000  0.11428571
 
 position of ions in cartesian coordinates  (Angst):
   0.00000000  0.00000000  0.00000000
   0.00000000  0.00000000  1.20000000
 


--------------------------------------------------------------------------------------------------------


 k-point  1 :   0.0000 0.0000 0.0000  plane waves:   19819

 maximum and minimum number of plane-waves per node :     19819    19819

 maximum number of plane-waves:     19819
 maximum index in each direction: 
   IXMAX=   16   IYMAX=   16   IZMAX=   17
   IXMIN=  -16   IYMIN=  -16   IZMIN=  -17

 WARNING: aliasing errors must be expected set NGX to  66 to avoid them
 WARNING: aliasing errors must be expected set NGY to  66 to avoid them
 WARNING: aliasing errors must be expected set NGZ to  70 to avoid them
 aliasing errors are usually negligible using standard VASP settings
 and one can safely disregard these warnings

 serial   3D FFT for wavefunctions
 parallel 3D FFT for charge:
    minimum data exchange during FFTs selected (reduces bandwidth)


 total amount of memory used by VASP on root node   140193. kBytes
========================================================================

   base      :      30000. kBytes
   nonl-proj :       3171. kBytes
   fftplans  :      37440. kBytes
   grid      :      66720. kBytes
   one-center:          6. kBytes
   wavefun   :       2856. kBytes
 
 Broyden mixing: mesh for mixing (old mesh)
   NGX = 33   NGY = 33   NGZ = 35
  (NGX  =100   NGY  =100   NGZ  =108)
  gives a total of  38115 points

 initial charge density was supplied:
 charge density of overlapping atoms calculated
 number of electron      10.0000000 magnetization 
 keeping initial charge density in first step


--------------------------------------------------------------------------------------------------------


 Maximum index for augmentation-charges         1533 (set IRDMAX)


--------------------------------------------------------------------------------------------------------


 First call to EWALD:  gamma=   0.172
 Maximum number of real-space cells 3x 3x 3
 Maximum number of reciprocal cells 3x 3x 3

 FEWALD executed in parallel
    FEWALD:  cpu time    0.00: real time    0.00


----------------------------------------- Iteration    1(   1)  ---------------------------------------


    POTLOK:  cpu time    1.19: real time    1.19
    SETDIJ:  cpu time    0.01: real time    0.00
     EDDAV:  cpu time    0.44: real time    0.44
       DOS:  cpu time    0.00: real time    0.00
    --------------------------------------------
      LOOP:  cpu time    1.63: real time    1.64

 eigenvalue-minimisations  :    18
 total energy-change (2. order) : 0.7903948E+02  (-0.1921810E+03)
 number of electron      10.0000000 magnetization 
 augmentation part       10.0000000 magnetization 

 Free energy of the ion-electron system (eV)
  ---------------------------------------------------
  alpha Z        PSCENC =         0.40002888
  Ewald energy   TEWEN  =        90.60381104
  -1/2 Hartree   DENC   =      -557.67350444
  -exchange  EXHF       =         0.00000000
  -V(xc)+E(xc)   XCENC  =        38.95235071
  PAW double counting   =       455.07152327     -457.43959975
  entropy T*S    EENTRO =        -0.00402724
  eigenvalues    EBANDS =       -70.26152444
  atomic energy  EATOM  =       579.39041991
  ---------------------------------------------------
  free energy    TOTEN  =        79.03947795 eV

  energy without entropy =       79.04350519  energy(sigma->0) =       79.04149157


--------------------------------------------------------------------------------------------------------




----------------------------------------- Iteration    1(   2)  ---------------------------------------


     EDDAV:  cpu time    0.82: real time    0.82
       DOS:  cpu time    0.00: real time    0.00
    --------------------------------------------
      LOOP:  cpu time    0.82: real time    0.82

 eigenvalue-minimisations  :    34
 total energy-change (2. order) :-0.7731606E+02  (-0.7708396E+02)
 number of electron      10.0000000 magnetization 
 augmentation part       10.0000000 magnetization 

 Free energy of the ion-electron system (eV)
  ---------------------------------------------------
  alpha Z        PSCENC =         0.40002888
  Ewald energy   TEWEN  =        90.60381104
  -1/2 Hartree   DENC   =      -557.67350444
  -exchange  EXHF       =         0.00000000
  -V(xc)+E(xc)   XCENC  =        38.95235071
  PAW double counting   =       455.07152327     -457.43959975
  entropy T*S    EENTRO =        -0.00000000
  eigenvalues    EBANDS =      -147.58161609
  atomic energy  EATOM  =       579.39041991
  ---------------------------------------------------
  free energy    TOTEN  =         1.72341354 eV

  energy without entropy =        1.72341354  energy(sigma->0) =        1.72341354


--------------------------------------------------------------------------------------------------------




----------------------------------------- Iteration    1(   3)  ---------------------------------------


     EDDAV:  cpu time    0.92: real time    0.92
       DOS:  cpu time    0.00: real time    0.00
    --------------------------------------------
      LOOP:  cpu time    0.92: real time    0.92

 eigenvalue-minimisations  :    35
 total energy-change (2. order) :-0.1678572E+02  (-0.1678137E+02)
 number of electron      10.0000000 magnetization 
 augmentation part       10.0000000 magnetization 

 Free energy of the ion-electron system (eV)
  ---------------------------------------------------
  alpha Z        PSCENC =         0.40002888
  Ewald energy   TEWEN  =        90.60381104
  -1/2 Hartree   DENC   =      -557.67350444
  -exchange  EXHF       =         0.00000000
  -V(xc)+E(xc)   XCENC  =        38.95235071
  PAW double counting   =       455.07152327     -457.43959975
  entropy T*S    EENTRO =        -0.00000000
  eigenvalues    EBANDS =      -164.36733512
  atomic energy  EATOM  =       579.39041991
  ---------------------------------------------------
  free energy    TOTEN  =       -15.06230548 eV

  energy without entropy =      -15.06230548  energy(sigma->0) =      -15.06230548


--------------------------------------------------------------------------------------------------------




----------------------------------------- Iteration    1(   4)  ---------------------------------------


     EDDAV:  cpu time    0.59: real time    0.59
       DOS:  cpu time    0.00: real time    0.00
    --------------------------------------------
      LOOP:  cpu time    0.59: real time    0.59

 eigenvalue-minimisations  :    20
 total energy-change (2. order) :-0.2344322E+00  (-0.2344289E+00)
 number of electron      10.0000000 magnetization 
 augmentation part       10.0000000 magnetization 

 Free energy of the ion-electron system (eV)
  ---------------------------------------------------
  alpha Z        PSCENC =         0.40002888
  Ewald energy   TEWEN  =        90.60381104
  -1/2 Hartree   DENC   =      -557.67350444
  -exchange  EXHF       =         0.00000000
  -V(xc)+E(xc)   XCENC  =        38.95235071
  PAW double counting   =       455.07152327     -457.43959975
  entropy T*S    EENTRO =        -0.00000000
  eigenvalues    EBANDS =      -164.60176727
  atomic energy  EATOM  =       579.39041991
  ---------------------------------------------------
  free energy    TOTEN  =       -15.29673764 eV

  energy without entropy =      -15.29673764  energy(sigma->0) =      -15.29673764


--------------------------------------------------------------------------------------------------------




----------------------------------------- Iteration    1(   5)  ---------------------------------------


     EDDAV:  cpu time    0.75: real time    0.75
       DOS:  cpu time    0.00: real time    0.00
    CHARGE:  cpu time    0.12: real time    0.12
    MIXING:  cpu time    0.04: real time    0.04
    --------------------------------------------
      LOOP:  cpu time    0.90: real time    0.90

 eigenvalue-minimisations  :    27
 total energy-change (2. order) :-0.1831561E-02  (-0.1831560E-02)
 number of electron      10.0000016 magnetization 
 augmentation part        0.6963414 magnetization 

 Broyden mixing:
  rms(total) = 0.63554E+00    rms(broyden)= 0.63412E+00
  rms(prec ) = 0.75647E+00
  weight for this iteration     100.00

 Free energy of the ion-electron system (eV)
  ---------------------------------------------------
  alpha Z        PSCENC =         0.40002888
  Ewald energy   TEWEN  =        90.60381104
  -1/2 Hartree   DENC   =      -557.67350444
  -exchange  EXHF       =         0.00000000
  -V(xc)+E(xc)   XCENC  =        38.95235071
  PAW double counting   =       455.07152327     -457.43959975
  entropy T*S    EENTRO =        -0.00000000
  eigenvalues    EBANDS =      -164.60359883
  atomic energy  EATOM  =       579.39041991
  ---------------------------------------------------
  free energy    TOTEN  =       -15.29856920 eV

  energy without entropy =      -15.29856920  energy(sigma->0) =      -15.29856920


--------------------------------------------------------------------------------------------------------




----------------------------------------- Iteration    1(   6)  ---------------------------------------


    POTLOK:  cpu time    1.19: real time    1.19
    SETDIJ:  cpu time    0.01: real time    0.01
    EDDIAG:  cpu time    0.12: real time    0.12
  RMM-DIIS:  cpu time    0.45: real time    0.45
    ORTHCH:  cpu time    0.01: real time    0.01
       DOS:  cpu time    0.00: real time    0.00
    CHARGE:  cpu time    0.11: real time    0.11
    MIXING:  cpu time    0.04: real time    0.04
    --------------------------------------------
      LOOP:  cpu time    1.93: real time    1.93

 eigenvalue-minimisations  :    18
 total energy-change (2. order) : 0.5043934E+00  (-0.1623259E+00)
 number of electron      10.0000009 magnetization 
 augmentation part        0.6075566 magnetization 

 Broyden mixing:
  rms(total) = 0.35204E+00    rms(broyden)= 0.35153E+00
  rms(prec ) = 0.40703E+00
  weight for this iteration     100.00

 eigenvalues of (default mixing * dielectric matrix)
  average eigenvalue GAMMA=   0.9264
  0.9264

 Free energy of the ion-electron system (eV)
  ---------------------------------------------------
  alpha Z        PSCENC =         0.40002888
  Ewald energy   TEWEN  =        90.60381104
  -1/2 Hartree   DENC   =      -570.34513290
  -exchange  EXHF       =         0.00000000
  -V(xc)+E(xc)   XCENC  =        39.69633736
  PAW double counting   =       576.79265850     -579.28899119
  entropy T*S    EENTRO =        -0.00000000
  eigenvalues    EBANDS =      -152.04330737
  atomic energy  EATOM  =       579.39041991
  ---------------------------------------------------
  free energy    TOTEN  =       -14.79417577 eV

  energy without entropy =      -14.79417577  energy(sigma->0) =      -14.79417577


--------------------------------------------------------------------------------------------------------




----------------------------------------- Iteration    1(   7)  ---------------------------------------


    POTLOK:  cpu time    1.31: real time    1.31
    SETDIJ:  cpu time    0.00: real time    0.01
    EDDIAG:  cpu time    0.13: real time    0.13
  RMM-DIIS:  cpu time    0.51: real time    0.51
    ORTHCH:  cpu time    0.01: real time    0.01
       DOS:  cpu time    0.00: real time    0.00
    CHARGE:  cpu time    0.12: real time    0.12
    MIXING:  cpu time    0.04: real time    0.04
    --------------------------------------------
      LOOP:  cpu time    2.13: real time    2.13

 eigenvalue-minimisations  :    18
 total energy-change (2. order) : 0.1248943E+00  (-0.1798444E-01)
 number of electron      10.0000012 magnetization 
 augmentation part        0.6346116 magnetization 

 Broyden mixing:
  rms(total) = 0.19499E+00    rms(broyden)= 0.19492E+00
  rms(prec ) = 0.21808E+00
  weight for this iteration     100.00

 eigenvalues of (default mixing * dielectric matrix)
  average eigenvalue GAMMA=   1.4938
  0.7146  2.2730

 Free energy of the ion-electron system (eV)
  ---------------------------------------------------
  alpha Z        PSCENC =         0.40002888
  Ewald energy   TEWEN  =        90.60381104
  -1/2 Hartree   DENC   =      -570.64781260
  -exchange  EXHF       =         0.00000000
  -V(xc)+E(xc)   XCENC  =        39.73534631
  PAW double counting   =       639.58679919     -642.02824662
  entropy T*S    EENTRO =        -0.00000000
  eigenvalues    EBANDS =      -151.70962754
  atomic energy  EATOM  =       579.39041991
  ---------------------------------------------------
  free energy    TOTEN  =       -14.66928143 eV

  energy without entropy =      -14.66928143  energy(sigma->0) =      -14.66928143


--------------------------------------------------------------------------------------------------------




----------------------------------------- Iteration    1(   8)  ---------------------------------------


    POTLOK:  cpu time    1.24: real time    1.24
    SETDIJ:  cpu time    0.00: real time    0.01
    EDDIAG:  cpu time    0.12: real time    0.12
  RMM-DIIS:  cpu time    0.38: real time    0.38
    ORTHCH:  cpu time    0.01: real time    0.01
       DOS:  cpu time    0.00: real time    0.00
    CHARGE:  cpu time    0.10: real time    0.10
    MIXING:  cpu time    0.04: real time    0.04
    --------------------------------------------
      LOOP:  cpu time    1.89: real time    1.90

 eigenvalue-minimisations  :    18
 total energy-change (2. order) : 0.3229897E-01  (-0.1324848E-01)
 number of electron      10.0000012 magnetization 
 augmentation part        0.6266512 magnetization 

 Broyden mixing:
  rms(total) = 0.35344E-01    rms(broyden)= 0.35322E-01
  rms(prec ) = 0.43716E-01
  weight for this iteration     100.00

 eigenvalues of (default mixing * dielectric matrix)
  average eigenvalue GAMMA=   1.5568
  2.3277  1.6280  0.7149

 Free energy of the ion-electron system (eV)
  ---------------------------------------------------
  alpha Z        PSCENC =         0.40002888
  Ewald energy   TEWEN  =        90.60381104
  -1/2 Hartree   DENC   =      -575.11169629
  -exchange  EXHF       =         0.00000000
  -V(xc)+E(xc)   XCENC  =        40.01271172
  PAW double counting   =       760.41828654     -762.83368414
  entropy T*S    EENTRO =        -0.00000000
  eigenvalues    EBANDS =      -147.51686011
  atomic energy  EATOM  =       579.39041991
  ---------------------------------------------------
  free energy    TOTEN  =       -14.63698246 eV

  energy without entropy =      -14.63698246  energy(sigma->0) =      -14.63698246


--------------------------------------------------------------------------------------------------------




----------------------------------------- Iteration    1(   9)  ---------------------------------------


    POTLOK:  cpu time    1.12: real time    1.12
    SETDIJ:  cpu time    0.00: real time    0.01
    EDDIAG:  cpu time    0.12: real time    0.12
  RMM-DIIS:  cpu time    0.42: real time    0.42
    ORTHCH:  cpu time    0.00: real time    0.00
       DOS:  cpu time    0.00: real time    0.00
    CHARGE:  cpu time    0.11: real time    0.11
    MIXING:  cpu time    0.04: real time    0.05
    --------------------------------------------
      LOOP:  cpu time    1.82: real time    1.82

 eigenvalue-minimisations  :    18
 total energy-change (2. order) : 0.5897435E-03  (-0.5169085E-03)
 number of electron      10.0000011 magnetization 
 augmentation part        0.6225838 magnetization 

 Broyden mixing:
  rms(total) = 0.15542E-01    rms(broyden)= 0.15509E-01
  rms(prec ) = 0.20762E-01
  weight for this iteration     100.00

 eigenvalues of (default mixing * dielectric matrix)
  average eigenvalue GAMMA=   1.5238
  0.7349  0.9833  2.1885  2.1885

 Free energy of the ion-electron system (eV)
  ---------------------------------------------------
  alpha Z        PSCENC =         0.40002888
  Ewald energy   TEWEN  =        90.60381104
  -1/2 Hartree   DENC   =      -575.07699522
  -exchange  EXHF       =         0.00000000
  -V(xc)+E(xc)   XCENC  =        40.00236096
  PAW double counting   =       774.79691509     -777.19081942
  entropy T*S    EENTRO =        -0.00000000
  eigenvalues    EBANDS =      -147.56211397
  atomic energy  EATOM  =       579.39041991
  ---------------------------------------------------
  free energy    TOTEN  =       -14.63639271 eV

  energy without entropy =      -14.63639271  energy(sigma->0) =      -14.63639271


--------------------------------------------------------------------------------------------------------




----------------------------------------- Iteration    1(  10)  ---------------------------------------


    POTLOK:  cpu time    1.14: real time    1.14
    SETDIJ:  cpu time    0.00: real time    0.01
    EDDIAG:  cpu time    0.12: real time    0.12
  RMM-DIIS:  cpu time    0.41: real time    0.41
    ORTHCH:  cpu time    0.01: real time    0.01
       DOS:  cpu time    0.00: real time    0.00
    CHARGE:  cpu time    0.10: real time    0.10
    MIXING:  cpu time    0.04: real time    0.05
    --------------------------------------------
      LOOP:  cpu time    1.83: real time    1.83

 eigenvalue-minimisations  :    18
 total energy-change (2. order) :-0.5857554E-03  (-0.1511172E-03)
 number of electron      10.0000012 magnetization 
 augmentation part        0.6246921 magnetization 

 Broyden mixing:
  rms(total) = 0.35432E-02    rms(broyden)= 0.35283E-02
  rms(prec ) = 0.73817E-02
  weight for this iteration     100.00

 eigenvalues of (default mixing * dielectric matrix)
  average eigenvalue GAMMA=   1.6976
  0.7356  0.9556  2.4793  2.1587  2.1587

 Free energy of the ion-electron system (eV)
  ---------------------------------------------------
  alpha Z        PSCENC =         0.40002888
  Ewald energy   TEWEN  =        90.60381104
  -1/2 Hartree   DENC   =      -574.83269333
  -exchange  EXHF       =         0.00000000
  -V(xc)+E(xc)   XCENC  =        39.98328178
  PAW double counting   =       775.70804255     -778.09145558
  entropy T*S    EENTRO =        -0.00000000
  eigenvalues    EBANDS =      -147.79841373
  atomic energy  EATOM  =       579.39041991
  ---------------------------------------------------
  free energy    TOTEN  =       -14.63697847 eV

  energy without entropy =      -14.63697847  energy(sigma->0) =      -14.63697847


--------------------------------------------------------------------------------------------------------




----------------------------------------- Iteration    1(  11)  ---------------------------------------


    POTLOK:  cpu time    1.06: real time    1.06
    SETDIJ:  cpu time    0.00: real time    0.01
    EDDIAG:  cpu time    0.10: real time    0.10
  RMM-DIIS:  cpu time    0.34: real time    0.34
    ORTHCH:  cpu time    0.01: real time    0.01
       DOS:  cpu time    0.00: real time    0.00
    CHARGE:  cpu time    0.09: real time    0.10
    MIXING:  cpu time    0.05: real time    0.05
    --------------------------------------------
      LOOP:  cpu time    1.66: real time    1.66

 eigenvalue-minimisations  :    17
 total energy-change (2. order) :-0.1538702E-02  (-0.7170656E-04)
 number of electron      10.0000012 magnetization 
 augmentation part        0.6246376 magnetization 

 Broyden mixing:
  rms(total) = 0.39077E-02    rms(broyden)= 0.39063E-02
  rms(prec ) = 0.60892E-02
  weight for this iteration     100.00

 eigenvalues of (default mixing * dielectric matrix)
  average eigenvalue GAMMA=   1.6689
  3.0532  2.4373  1.7998  0.7338  0.9946  0.9946

 Free energy of the ion-electron system (eV)
  ---------------------------------------------------
  alpha Z        PSCENC =         0.40002888
  Ewald energy   TEWEN  =        90.60381104
  -1/2 Hartree   DENC   =      -575.23931614
  -exchange  EXHF       =         0.00000000
  -V(xc)+E(xc)   XCENC  =        40.00028395
  PAW double counting   =       775.26960367     -777.65416144
  entropy T*S    EENTRO =        -0.00000000
  eigenvalues    EBANDS =      -147.40918704
  atomic energy  EATOM  =       579.39041991
  ---------------------------------------------------
  free energy    TOTEN  =       -14.63851717 eV

  energy without entropy =      -14.63851717  energy(sigma->0) =      -14.63851717


--------------------------------------------------------------------------------------------------------




----------------------------------------- Iteration    1(  12)  ---------------------------------------


    POTLOK:  cpu time    1.10: real time    1.10
    SETDIJ:  cpu time    0.01: real time    0.01
    EDDIAG:  cpu time    0.10: real time    0.10
  RMM-DIIS:  cpu time    0.31: real time    0.31
    ORTHCH:  cpu time    0.01: real time    0.01
       DOS:  cpu time    0.00: real time    0.00
    CHARGE:  cpu time    0.10: real time    0.10
    MIXING:  cpu time    0.05: real time    0.05
    --------------------------------------------
      LOOP:  cpu time    1.68: real time    1.68

 eigenvalue-minimisations  :    14
 total energy-change (2. order) :-0.5217288E-03  (-0.1893387E-04)
 number of electron      10.0000012 magnetization 
 augmentation part        0.6244535 magnetization 

 Broyden mixing:
  rms(total) = 0.12458E-02    rms(broyden)= 0.12437E-02
  rms(prec ) = 0.27390E-02
  weight for this iteration     100.00

 eigenvalues of (default mixing * dielectric matrix)
  average eigenvalue GAMMA=   1.8864
  3.2439  2.6576  2.6576  1.9310  0.7343  0.9400  1.0407

 Free energy of the ion-electron system (eV)
  ---------------------------------------------------
  alpha Z        PSCENC =         0.40002888
  Ewald energy   TEWEN  =        90.60381104
  -1/2 Hartree   DENC   =      -575.20529624
  -exchange  EXHF       =         0.00000000
  -V(xc)+E(xc)   XCENC  =        39.99413261
  PAW double counting   =       774.52536479     -776.90703642
  entropy T*S    EENTRO =        -0.00000000
  eigenvalues    EBANDS =      -147.44046348
  atomic energy  EATOM  =       579.39041991
  ---------------------------------------------------
  free energy    TOTEN  =       -14.63903890 eV

  energy without entropy =      -14.63903890  energy(sigma->0) =      -14.63903890


--------------------------------------------------------------------------------------------------------




----------------------------------------- Iteration    1(  13)  ---------------------------------------


    POTLOK:  cpu time    0.97: real time    0.97
    SETDIJ:  cpu time    0.00: real time    0.00
    EDDIAG:  cpu time    0.10: real time    0.10
  RMM-DIIS:  cpu time    0.35: real time    0.35
    ORTHCH:  cpu time    0.01: real time    0.01
       DOS:  cpu time    0.00: real time    0.00
    CHARGE:  cpu time    0.10: real time    0.11
    MIXING:  cpu time    0.06: real time    0.06
    --------------------------------------------
      LOOP:  cpu time    1.60: real time    1.60

 eigenvalue-minimisations  :    14
 total energy-change (2. order) :-0.1003531E-02  (-0.1536785E-04)
 number of electron      10.0000012 magnetization 
 augmentation part        0.6244138 magnetization 

 Broyden mixing:
  rms(total) = 0.14954E-02    rms(broyden)= 0.14952E-02
  rms(prec ) = 0.18693E-02
  weight for this iteration     100.00

 eigenvalues of (default mixing * dielectric matrix)
  average eigenvalue GAMMA=   1.9346
  5.0015  2.5710  2.4186  1.7673  0.7344  0.9081  1.0380  1.0380

 Free energy of the ion-electron system (eV)
  ---------------------------------------------------
  alpha Z        PSCENC =         0.40002888
  Ewald energy   TEWEN  =        90.60381104
  -1/2 Hartree   DENC   =      -575.27787989
  -exchange  EXHF       =         0.00000000
  -V(xc)+E(xc)   XCENC  =        39.99532812
  PAW double counting   =       775.59937117     -777.98201610
  entropy T*S    EENTRO =        -0.00000000
  eigenvalues    EBANDS =      -147.36910556
  atomic energy  EATOM  =       579.39041991
  ---------------------------------------------------
  free energy    TOTEN  =       -14.64004243 eV

  energy without entropy =      -14.64004243  energy(sigma->0) =      -14.64004243


--------------------------------------------------------------------------------------------------------




----------------------------------------- Iteration    1(  14)  ---------------------------------------


    POTLOK:  cpu time    1.00: real time    1.00
    SETDIJ:  cpu time    0.00: real time    0.00
    EDDIAG:  cpu time    0.11: real time    0.11
  RMM-DIIS:  cpu time    0.30: real time    0.30
    ORTHCH:  cpu time    0.00: real time    0.01
       DOS:  cpu time    0.00: real time    0.00
    --------------------------------------------
      LOOP:  cpu time    1.42: real time    1.42

 eigenvalue-minimisations  :    12
 total energy-change (2. order) :-0.5224010E-04  (-0.2164280E-05)
 number of electron      10.0000012 magnetization 
 augmentation part        0.6244138 magnetization 

 Free energy of the ion-electron system (eV)
  ---------------------------------------------------
  alpha Z        PSCENC =         0.40002888
  Ewald energy   TEWEN  =        90.60381104
  -1/2 Hartree   DENC   =      -575.31616742
  -exchange  EXHF       =         0.00000000
  -V(xc)+E(xc)   XCENC  =        39.99684412
  PAW double counting   =       774.82835556     -777.21153677
  entropy T*S    EENTRO =        -0.00000000
  eigenvalues    EBANDS =      -147.33184999
  atomic energy  EATOM  =       579.39041991
  ---------------------------------------------------
  free energy    TOTEN  =       -14.64009467 eV

  energy without entropy =      -14.64009467  energy(sigma->0) =      -14.64009467


--------------------------------------------------------------------------------------------------------




 average (electrostatic) potential at core
  the test charge radii are     0.6991  0.7215
  (the norm of the test charge is              1.0000)
       1 -61.8442       2 -83.2250
 
 
 
 E-fermi :  -8.0323     XC(G=0):  -0.6427     alpha+bet : -0.1603


 k-point   1 :       0.0000    0.0000    0.0000
  band No.  band energies     occupation 
      1     -28.3304      2.00000
      2     -13.9759      2.00000
      3     -11.1589      2.00000
      4     -11.1583      2.00000
      5      -9.0423      2.00000
      6      -2.5413      0.00000
      7      -2.5401      0.00000
      8      -0.2337      0.00000
      9       0.9278      0.00000


--------------------------------------------------------------------------------------------------------


 soft charge-density along one line, spin component           1
         0         1         2         3         4         5         6         7         8         9
 total charge-density along one line
 
 pseudopotential strength for first ion, spin component:           1
 10.414  13.854  -0.000   0.022  -0.000   0.000  -0.070   0.000
 13.854  18.429  -0.000   0.028  -0.000   0.000  -0.092   0.000
 -0.000  -0.000  -4.563   0.000  -0.000   8.939  -0.000   0.000
  0.022   0.028   0.000  -4.560  -0.000  -0.000   8.924   0.000
 -0.000  -0.000  -0.000  -0.000  -4.563   0.000   0.000   8.939
  0.000   0.000   8.939  -0.000   0.000 -19.664   0.000  -0.000
 -0.070  -0.092  -0.000   8.924   0.000   0.000 -19.614  -0.000
  0.000   0.000   0.000   0.000   8.939  -0.000  -0.000 -19.664
 total augmentation occupancy for first ion, spin component:           1
  6.232  -2.680   0.000   1.698   0.000   0.000   0.308   0.000
 -2.680   1.561   0.000  -1.366   0.000   0.000  -0.191   0.000
  0.000   0.000   0.760   0.000   0.000   0.053   0.000   0.000
  1.698  -1.366   0.000   2.041   0.000   0.000   0.188   0.000
  0.000   0.000   0.000   0.000   0.760   0.000   0.000   0.053
  0.000   0.000   0.053   0.000   0.000   0.004   0.000   0.000
  0.308  -0.191   0.000   0.188   0.000   0.000   0.024   0.000
  0.000   0.000   0.000   0.000   0.053   0.000   0.000   0.004


------------------------ aborting loop because EDIFF is reached ----------------------------------------


    CHARGE:  cpu time    0.10: real time    0.10
    FORLOC:  cpu time    0.08: real time    0.08
    FORNL :  cpu time    0.06: real time    0.06
    STRESS:  cpu time    0.36: real time    0.36
    FORCOR:  cpu time    1.28: real time    1.28
    FORHAR:  cpu time    0.34: real time    0.34
    MIXING:  cpu time    0.07: real time    0.07

  FORCE on cell =-STRESS in cart. coord.  units (eV):
  Direction    XX          YY          ZZ          XY          YZ          ZX
  --------------------------------------------------------------------------------------
  Alpha Z     0.40003     0.40003     0.40003
  Ewald     -62.73007   -66.60652   219.94041    -0.00000     0.00000    -0.00000
  Hartree   158.68526   154.91749   261.69092    -0.00000    -0.00000    -0.00000
  E(xc)     -43.55532   -43.55502   -42.46130    -0.00000     0.00000    -0.00000
  Local    -230.48983  -222.84092  -596.53948     0.00000    -0.00000    -0.00000
  n-local   -17.74368   -17.74011   -28.17081    -0.00000     0.00000    -0.00000
  augment     6.14468     6.14388     5.92801     0.00000    -0.00000     0.00000
  Kinetic   188.51008   188.51433   172.18274    -0.00000    -0.00000     0.00000
  Fock        0.00000     0.00000     0.00000     0.00000     0.00000     0.00000
  -------------------------------------------------------------------------------------
  Total      -0.77885    -0.76685    -7.02950     0.00000     0.00000     0.00000
  in kB      -1.14239    -1.12479   -10.31067     0.00000     0.00000     0.00000
  external pressure =       -4.19 kB  Pullay stress =        0.00 kB


 VOLUME and BASIS-vectors are now :
 -----------------------------------------------------------------------------
  energy-cutoff  :      400.00
  volume of cell :     1092.32
      direct lattice vectors                 reciprocal lattice vectors
    10.100000000  0.000000000  0.000000000     0.099009901  0.000000000  0.000000000
     0.000000000 10.300000000  0.000000000     0.000000000  0.097087379  0.000000000
     0.000000000  0.000000000 10.500000000     0.000000000  0.000000000  0.095238095

  length of vectors
    10.100000000 10.300000000 10.500000000     0.099009901  0.097087379  0.095238095


 FORCES acting on ions
    electron-ion (+dipol)            ewald-force                    non-local-force                 convergence-correction
 -----------------------------------------------------------------------------------------------
   0.423E-14 0.140E-17 0.216E+03   -.130E-16 0.377E-16 -.238E+03   0.000E+00 0.000E+00 0.280E+02   0.898E-14 0.755E-14 -.390E-02
   0.421E-14 0.492E-14 -.188E+03   0.445E-16 -.233E-16 0.238E+03   0.000E+00 0.000E+00 -.556E+02   0.226E-13 -.405E-14 0.192E-01
 -----------------------------------------------------------------------------------------------
   0.845E-14 0.492E-14 0.276E+02   0.315E-16 0.144E-16 0.000E+00   0.000E+00 0.000E+00 -.277E+02   0.316E-13 0.350E-14 0.153E-01
 
 
 POSITION                                       TOTAL-FORCE (eV/Angst)
 -----------------------------------------------------------------------------------
      0.00000      0.00000      0.00000         0.000000      0.000000      5.258620
      0.00000      0.00000      1.20000         0.000000      0.000000     -5.258620
 -----------------------------------------------------------------------------------
    total drift:                                0.000000      0.000000     -0.007052


--------------------------------------------------------------------------------------------------------



  FREE ENERGIE OF THE ION-ELECTRON SYSTEM (eV)
  ---------------------------------------------------
  free  energy   TOTEN  =       -14.64009467 eV

  energy  without entropy=      -14.64009467  energy(sigma->0) =      -14.64009467
 


--------------------------------------------------------------------------------------------------------


    POTLOK:  cpu time    1.11: real time    1.11


--------------------------------------------------------------------------------------------------------


 Quasi-Newton relaxation of ions (Broydens 2nd method)
  g(Force)  = 0.267E+01   g(Stress)= 0.000E+00

 Reset! Starting new Quasi-Newton update for ions 


--------------------------------------------------------------------------------------------------------


    WAVPRE:  cpu time    0.35: real time    0.35
 FEWALD executed in parallel
    FEWALD:  cpu time    0.00: real time    0.00
    ORTHCH:  cpu time    0.02: real time    0.02
     LOOP+:  cpu time   24.61: real time   24.64


----------------------------------------- Iteration    2(   1)  ---------------------------------------


    POTLOK:  cpu time    1.01: real time    1.01
    SETDIJ:  cpu time    0.00: real time    0.00
     EDDAV:  cpu time    0.53: real time    0.53
       DOS:  cpu time    0.00: real time    0.00
    CHARGE:  cpu time    0.11: real time    0.11
    MIXING:  cpu time    0.04: real time    0.04
    --------------------------------------------
      LOOP:  cpu time    1.69: real time    1.69

 eigenvalue-minimisations  :    18
 total energy-change (2. order) : 0.3743064E+02  (-0.7659154E+02)
 number of electron      10.0000007 magnetization 
 augmentation part        1.1030247 magnetization 

 Broyden mixing:
  rms(total) = 0.25712E+01    rms(broyden)= 0.25642E+01
  rms(prec ) = 0.26745E+01
  weight for this iteration     100.00

 Free energy of the ion-electron system (eV)
  ---------------------------------------------------
  alpha Z        PSCENC =         0.40002888
  Ewald energy   TEWEN  =       300.97797248
  -1/2 Hartree   DENC   =      -657.35897513
  -exchange  EXHF       =         0.00000000
  -V(xc)+E(xc)   XCENC  =        42.65958452
  PAW double counting   =       774.52156508     -776.90412757
  entropy T*S    EENTRO =        -0.00000000
  eigenvalues    EBANDS =      -240.89587434
  atomic energy  EATOM  =       579.39041991
  ---------------------------------------------------
  free energy    TOTEN  =        22.79059384 eV

  energy without entropy =       22.79059384  energy(sigma->0) =       22.79059384


--------------------------------------------------------------------------------------------------------




----------------------------------------- Iteration    2(   2)  ---------------------------------------


    POTLOK:  cpu time    1.18: real time    1.18
    SETDIJ:  cpu time    0.00: real time    0.01
    EDDIAG:  cpu time    0.12: real time    0.12
  RMM-DIIS:  cpu time    0.44: real time    0.44
    ORTHCH:  cpu time    0.01: real time    0.01
       DOS:  cpu time    0.00: real time    0.00
    CHARGE:  cpu time    0.10: real time    0.10
    MIXING:  cpu time    0.04: real time    0.04
    --------------------------------------------
      LOOP:  cpu time    1.89: real time    1.89

 eigenvalue-minimisations  :    18
 total energy-change (2. order) : 0.1576753E+01  (-0.2516038E+01)
 number of electron      10.0000003 magnetization 
 augmentation part        1.0945362 magnetization 

 Broyden mixing:
  rms(total) = 0.31393E+01    rms(broyden)= 0.31393E+01
  rms(prec ) = 0.31798E+01
  weight for this iteration     100.00

 eigenvalues of (default mixing * dielectric matrix)
  average eigenvalue GAMMA=   1.3988
  1.3988

 Free energy of the ion-electron system (eV)
  ---------------------------------------------------
  alpha Z        PSCENC =         0.40002888
  Ewald energy   TEWEN  =       300.97797248
  -1/2 Hartree   DENC   =      -686.41340432
  -exchange  EXHF       =         0.00000000
  -V(xc)+E(xc)   XCENC  =        44.19525914
  PAW double counting   =      1646.51390602    -1649.99264918
  entropy T*S    EENTRO =        -0.00000000
  eigenvalues    EBANDS =      -210.70418630
  atomic energy  EATOM  =       579.39041991
  ---------------------------------------------------
  free energy    TOTEN  =        24.36734664 eV

  energy without entropy =       24.36734664  energy(sigma->0) =       24.36734664


--------------------------------------------------------------------------------------------------------




----------------------------------------- Iteration    2(   3)  ---------------------------------------


    POTLOK:  cpu time    1.14: real time    1.14
    SETDIJ:  cpu time    0.00: real time    0.01
    EDDIAG:  cpu time    0.13: real time    0.13
  RMM-DIIS:  cpu time    0.54: real time    0.54
    ORTHCH:  cpu time    0.01: real time    0.01
       DOS:  cpu time    0.00: real time    0.00
    CHARGE:  cpu time    0.13: real time    0.13
    MIXING:  cpu time    0.04: real time    0.04
    --------------------------------------------
      LOOP:  cpu time    1.99: real time    1.99

 eigenvalue-minimisations  :    18
 total energy-change (2. order) :-0.2886403E+01  (-0.3808010E+00)
 number of electron      10.0000002 magnetization 
 augmentation part        1.1328473 magnetization 

 Broyden mixing:
  rms(total) = 0.49243E+01    rms(broyden)= 0.49243E+01
  rms(prec ) = 0.49931E+01
  weight for this iteration     100.00

 eigenvalues of (default mixing * dielectric matrix)
  average eigenvalue GAMMA=   1.3167
  1.3167  1.3167

 Free energy of the ion-electron system (eV)
  ---------------------------------------------------
  alpha Z        PSCENC =         0.40002888
  Ewald energy   TEWEN  =       300.97797248
  -1/2 Hartree   DENC   =      -667.56055506
  -exchange  EXHF       =         0.00000000
  -V(xc)+E(xc)   XCENC  =        43.30174995
  PAW double counting   =       729.97840930     -732.82152765
  entropy T*S    EENTRO =        -0.00000000
  eigenvalues    EBANDS =      -232.18555368
  atomic energy  EATOM  =       579.39041991
  ---------------------------------------------------
  free energy    TOTEN  =        21.48094412 eV

  energy without entropy =       21.48094412  energy(sigma->0) =       21.48094412


--------------------------------------------------------------------------------------------------------




----------------------------------------- Iteration    2(   4)  ---------------------------------------


    POTLOK:  cpu time    1.26: real time    1.26
    SETDIJ:  cpu time    0.01: real time    0.01
    EDDIAG:  cpu time    0.13: real time    0.13
  RMM-DIIS:  cpu time    0.45: real time    0.45
    ORTHCH:  cpu time    0.01: real time    0.01
       DOS:  cpu time    0.00: real time    0.00
    CHARGE:  cpu time    0.11: real time    0.11
    MIXING:  cpu time    0.04: real time    0.04
    --------------------------------------------
      LOOP:  cpu time    2.00: real time    2.00

 eigenvalue-minimisations  :    18
 total energy-change (2. order) : 0.4634210E+01  (-0.1558463E+01)
 number of electron      10.0000002 magnetization 
 augmentation part        1.0308669 magnetization 

 Broyden mixing:
  rms(total) = 0.69020E+00    rms(broyden)= 0.68948E+00
  rms(prec ) = 0.69371E+00
  weight for this iteration     100.00

 eigenvalues of (default mixing * dielectric matrix)
  average eigenvalue GAMMA=   1.3651
  1.6859  1.6859  0.7236

 Free energy of the ion-electron system (eV)
  ---------------------------------------------------
  alpha Z        PSCENC =         0.40002888
  Ewald energy   TEWEN  =       300.97797248
  -1/2 Hartree   DENC   =      -714.98892870
  -exchange  EXHF       =         0.00000000
  -V(xc)+E(xc)   XCENC  =        45.62459848
  PAW double counting   =      4727.01230448    -4731.48861046
  entropy T*S    EENTRO =        -0.00000000
  eigenvalues    EBANDS =      -180.81263134
  atomic energy  EATOM  =       579.39041991
  ---------------------------------------------------
  free energy    TOTEN  =        26.11515373 eV

  energy without entropy =       26.11515373  energy(sigma->0) =       26.11515373


--------------------------------------------------------------------------------------------------------




----------------------------------------- Iteration    2(   5)  ---------------------------------------


    POTLOK:  cpu time    1.08: real time    1.08
    SETDIJ:  cpu time    0.01: real time    0.01
    EDDIAG:  cpu time    0.10: real time    0.10
  RMM-DIIS:  cpu time    0.38: real time    0.39
    ORTHCH:  cpu time    0.01: real time    0.01
       DOS:  cpu time    0.00: real time    0.00
    CHARGE:  cpu time    0.10: real time    0.10
    MIXING:  cpu time    0.04: real time    0.04
    --------------------------------------------
      LOOP:  cpu time    1.72: real time    1.72

 eigenvalue-minimisations  :    18
 total energy-change (2. order) : 0.1106391E-01  (-0.2512892E-01)
 number of electron      10.0000002 magnetization 
 augmentation part        1.0280818 magnetization 

 Broyden mixing:
  rms(total) = 0.36609E+00    rms(broyden)= 0.36600E+00
  rms(prec ) = 0.36832E+00
  weight for this iteration     100.00

 eigenvalues of (default mixing * dielectric matrix)
  average eigenvalue GAMMA=   1.3407
  1.8464  1.8464  0.8351  0.8351

 Free energy of the ion-electron system (eV)
  ---------------------------------------------------
  alpha Z        PSCENC =         0.40002888
  Ewald energy   TEWEN  =       300.97797248
  -1/2 Hartree   DENC   =      -715.45255640
  -exchange  EXHF       =         0.00000000
  -V(xc)+E(xc)   XCENC  =        45.62267331
  PAW double counting   =      5321.50170414    -5325.96857339
  entropy T*S    EENTRO =        -0.00000000
  eigenvalues    EBANDS =      -180.34545130
  atomic energy  EATOM  =       579.39041991
  ---------------------------------------------------
  free energy    TOTEN  =        26.12621764 eV

  energy without entropy =       26.12621764  energy(sigma->0) =       26.12621764


--------------------------------------------------------------------------------------------------------




----------------------------------------- Iteration    2(   6)  ---------------------------------------


    POTLOK:  cpu time    1.04: real time    1.04
    SETDIJ:  cpu time    0.01: real time    0.01
    EDDIAG:  cpu time    0.11: real time    0.11
  RMM-DIIS:  cpu time    0.54: real time    0.54
    ORTHCH:  cpu time    0.01: real time    0.01
       DOS:  cpu time    0.00: real time    0.00
    CHARGE:  cpu time    0.13: real time    0.13
    MIXING:  cpu time    0.05: real time    0.06
    --------------------------------------------
      LOOP:  cpu time    1.88: real time    1.89

 eigenvalue-minimisations  :    19
 total energy-change (2. order) :-0.4391885E-02  (-0.2138471E-02)
 number of electron      10.0000002 magnetization 
 augmentation part        1.0255996 magnetization 

 Broyden mixing:
  rms(total) = 0.19950E+00    rms(broyden)= 0.19948E+00
  rms(prec ) = 0.20127E+00
  weight for this iteration     100.00

 eigenvalues of (default mixing * dielectric matrix)
  average eigenvalue GAMMA=   1.5556
  2.1646  2.1646  0.8411  1.0412  1.5667

 Free energy of the ion-electron system (eV)
  ---------------------------------------------------
  alpha Z        PSCENC =         0.40002888
  Ewald energy   TEWEN  =       300.97797248
  -1/2 Hartree   DENC   =      -715.75059512
  -exchange  EXHF       =         0.00000000
  -V(xc)+E(xc)   XCENC  =        45.62946001
  PAW double counting   =      5635.40564580    -5639.87307139
  entropy T*S    EENTRO =        -0.00000000
  eigenvalues    EBANDS =      -180.05803482
  atomic energy  EATOM  =       579.39041991
  ---------------------------------------------------
  free energy    TOTEN  =        26.12182576 eV

  energy without entropy =       26.12182576  energy(sigma->0) =       26.12182576


--------------------------------------------------------------------------------------------------------




----------------------------------------- Iteration    2(   7)  ---------------------------------------


    POTLOK:  cpu time    1.18: real time    1.18
    SETDIJ:  cpu time    0.01: real time    0.01
    EDDIAG:  cpu time    0.13: real time    0.13
  RMM-DIIS:  cpu time    0.49: real time    0.49
    ORTHCH:  cpu time    0.01: real time    0.01
       DOS:  cpu time    0.00: real time    0.00
    CHARGE:  cpu time    0.11: real time    0.11
    MIXING:  cpu time    0.05: real time    0.05
    --------------------------------------------
      LOOP:  cpu time    1.98: real time    1.98

 eigenvalue-minimisations  :    18
 total energy-change (2. order) :-0.4692991E-02  (-0.8630493E-03)
 number of electron      10.0000002 magnetization 
 augmentation part        1.0229462 magnetization 

 Broyden mixing:
  rms(total) = 0.26841E-01    rms(broyden)= 0.26823E-01
  rms(prec ) = 0.30500E-01
  weight for this iteration     100.00

 eigenvalues of (default mixing * dielectric matrix)
  average eigenvalue GAMMA=   1.3830
  2.3665  1.7841  1.4088  0.8142  0.8142  1.1102

 Free energy of the ion-electron system (eV)
  ---------------------------------------------------
  alpha Z        PSCENC =         0.40002888
  Ewald energy   TEWEN  =       300.97797248
  -1/2 Hartree   DENC   =      -715.84762027
  -exchange  EXHF       =         0.00000000
  -V(xc)+E(xc)   XCENC  =        45.62572223
  PAW double counting   =      6006.03446006    -6010.49781469
  entropy T*S    EENTRO =        -0.00000000
  eigenvalues    EBANDS =      -179.96603584
  atomic energy  EATOM  =       579.39041991
  ---------------------------------------------------
  free energy    TOTEN  =        26.11713277 eV

  energy without entropy =       26.11713277  energy(sigma->0) =       26.11713277


--------------------------------------------------------------------------------------------------------




----------------------------------------- Iteration    2(   8)  ---------------------------------------


    POTLOK:  cpu time    1.01: real time    1.02
    SETDIJ:  cpu time    0.00: real time    0.01
    EDDIAG:  cpu time    0.11: real time    0.11
  RMM-DIIS:  cpu time    0.40: real time    0.40
    ORTHCH:  cpu time    0.00: real time    0.01
       DOS:  cpu time    0.00: real time    0.00
    CHARGE:  cpu time    0.10: real time    0.10
    MIXING:  cpu time    0.05: real time    0.05
    --------------------------------------------
      LOOP:  cpu time    1.68: real time    1.69

 eigenvalue-minimisations  :    18
 total energy-change (2. order) :-0.1292823E-03  (-0.1518123E-03)
 number of electron      10.0000002 magnetization 
 augmentation part        1.0228963 magnetization 

 Broyden mixing:
  rms(total) = 0.53923E-02    rms(broyden)= 0.53787E-02
  rms(prec ) = 0.11386E-01
  weight for this iteration     100.00

 eigenvalues of (default mixing * dielectric matrix)
  average eigenvalue GAMMA=   1.5296
  2.2134  2.1041  2.1041  1.2344  1.2344  0.8589  0.9579

 Free energy of the ion-electron system (eV)
  ---------------------------------------------------
  alpha Z        PSCENC =         0.40002888
  Ewald energy   TEWEN  =       300.97797248
  -1/2 Hartree   DENC   =      -716.10025408
  -exchange  EXHF       =         0.00000000
  -V(xc)+E(xc)   XCENC  =        45.63738518
  PAW double counting   =      6047.53088874    -6051.99880255
  entropy T*S    EENTRO =        -0.00000000
  eigenvalues    EBANDS =      -179.72063508
  atomic energy  EATOM  =       579.39041991
  ---------------------------------------------------
  free energy    TOTEN  =        26.11700348 eV

  energy without entropy =       26.11700348  energy(sigma->0) =       26.11700348


--------------------------------------------------------------------------------------------------------




----------------------------------------- Iteration    2(   9)  ---------------------------------------


    POTLOK:  cpu time    1.03: real time    1.03
    SETDIJ:  cpu time    0.00: real time    0.01
    EDDIAG:  cpu time    0.12: real time    0.11
  RMM-DIIS:  cpu time    0.41: real time    0.41
    ORTHCH:  cpu time    0.01: real time    0.01
       DOS:  cpu time    0.00: real time    0.00
    CHARGE:  cpu time    0.10: real time    0.10
    MIXING:  cpu time    0.05: real time    0.05
    --------------------------------------------
      LOOP:  cpu time    1.72: real time    1.72

 eigenvalue-minimisations  :    18
 total energy-change (2. order) :-0.3657064E-02  (-0.4362123E-03)
 number of electron      10.0000002 magnetization 
 augmentation part        1.0228527 magnetization 

 Broyden mixing:
  rms(total) = 0.26308E-01    rms(broyden)= 0.26303E-01
  rms(prec ) = 0.27861E-01
  weight for this iteration     100.00

 eigenvalues of (default mixing * dielectric matrix)
  average eigenvalue GAMMA=   1.5515
  2.9988  2.4184  1.7111  1.2165  1.2165  0.8660  0.9923  0.9923

 Free energy of the ion-electron system (eV)
  ---------------------------------------------------
  alpha Z        PSCENC =         0.40002888
  Ewald energy   TEWEN  =       300.97797248
  -1/2 Hartree   DENC   =      -716.49183786
  -exchange  EXHF       =         0.00000000
  -V(xc)+E(xc)   XCENC  =        45.65226346
  PAW double counting   =      6078.43411819    -6082.90576427
  entropy T*S    EENTRO =        -0.00000000
  eigenvalues    EBANDS =      -179.34385436
  atomic energy  EATOM  =       579.39041991
  ---------------------------------------------------
  free energy    TOTEN  =        26.11334642 eV

  energy without entropy =       26.11334642  energy(sigma->0) =       26.11334642


--------------------------------------------------------------------------------------------------------




----------------------------------------- Iteration    2(  10)  ---------------------------------------


    POTLOK:  cpu time    1.14: real time    1.14
    SETDIJ:  cpu time    0.00: real time    0.01
    EDDIAG:  cpu time    0.13: real time    0.13
  RMM-DIIS:  cpu time    0.49: real time    0.49
    ORTHCH:  cpu time    0.01: real time    0.01
       DOS:  cpu time    0.00: real time    0.00
    CHARGE:  cpu time    0.13: real time    0.13
    MIXING:  cpu time    0.07: real time    0.07
    --------------------------------------------
      LOOP:  cpu time    1.98: real time    1.98

 eigenvalue-minimisations  :    18
 total energy-change (2. order) :-0.1263923E-02  (-0.1768088E-03)
 number of electron      10.0000002 magnetization 
 augmentation part        1.0228452 magnetization 

 Broyden mixing:
  rms(total) = 0.10227E-01    rms(broyden)= 0.10225E-01
  rms(prec ) = 0.10939E-01
  weight for this iteration     100.00

 eigenvalues of (default mixing * dielectric matrix)
  average eigenvalue GAMMA=   1.7722
  4.2113  2.2633  2.2633  1.9347  1.2216  1.2216  0.8900  0.9425  1.0013

 Free energy of the ion-electron system (eV)
  ---------------------------------------------------
  alpha Z        PSCENC =         0.40002888
  Ewald energy   TEWEN  =       300.97797248
  -1/2 Hartree   DENC   =      -716.18776931
  -exchange  EXHF       =         0.00000000
  -V(xc)+E(xc)   XCENC  =        45.63421728
  PAW double counting   =      6056.19942835    -6060.66112092
  entropy T*S    EENTRO =        -0.00000000
  eigenvalues    EBANDS =      -179.64109418
  atomic energy  EATOM  =       579.39041991
  ---------------------------------------------------
  free energy    TOTEN  =        26.11208250 eV

  energy without entropy =       26.11208250  energy(sigma->0) =       26.11208250


--------------------------------------------------------------------------------------------------------




----------------------------------------- Iteration    2(  11)  ---------------------------------------


    POTLOK:  cpu time    1.17: real time    1.17
    SETDIJ:  cpu time    0.00: real time    0.01
    EDDIAG:  cpu time    0.12: real time    0.12
  RMM-DIIS:  cpu time    0.39: real time    0.39
    ORTHCH:  cpu time    0.01: real time    0.01
       DOS:  cpu time    0.00: real time    0.00
    CHARGE:  cpu time    0.11: real time    0.11
    MIXING:  cpu time    0.06: real time    0.07
    --------------------------------------------
      LOOP:  cpu time    1.88: real time    1.88

 eigenvalue-minimisations  :    15
 total energy-change (2. order) :-0.1741729E-02  (-0.5103580E-04)
 number of electron      10.0000002 magnetization 
 augmentation part        1.0232131 magnetization 

 Broyden mixing:
  rms(total) = 0.22068E-02    rms(broyden)= 0.22051E-02
  rms(prec ) = 0.29551E-02
  weight for this iteration     100.00

 eigenvalues of (default mixing * dielectric matrix)
  average eigenvalue GAMMA=   1.9247
  5.9580  2.9270  2.4250  1.1865  1.1865  0.8779  0.9500  0.9500  1.4635  1.3222

 Free energy of the ion-electron system (eV)
  ---------------------------------------------------
  alpha Z        PSCENC =         0.40002888
  Ewald energy   TEWEN  =       300.97797248
  -1/2 Hartree   DENC   =      -716.17434813
  -exchange  EXHF       =         0.00000000
  -V(xc)+E(xc)   XCENC  =        45.63106097
  PAW double counting   =      6036.59706565    -6041.05845169
  entropy T*S    EENTRO =        -0.00000000
  eigenvalues    EBANDS =      -179.65340730
  atomic energy  EATOM  =       579.39041991
  ---------------------------------------------------
  free energy    TOTEN  =        26.11034077 eV

  energy without entropy =       26.11034077  energy(sigma->0) =       26.11034077


--------------------------------------------------------------------------------------------------------




----------------------------------------- Iteration    2(  12)  ---------------------------------------


    POTLOK:  cpu time    1.07: real time    1.07
    SETDIJ:  cpu time    0.00: real time    0.01
    EDDIAG:  cpu time    0.12: real time    0.11
  RMM-DIIS:  cpu time    0.29: real time    0.29
    ORTHCH:  cpu time    0.01: real time    0.01
       DOS:  cpu time    0.00: real time    0.00
    CHARGE:  cpu time    0.10: real time    0.10
    MIXING:  cpu time    0.06: real time    0.06
    --------------------------------------------
      LOOP:  cpu time    1.65: real time    1.65

 eigenvalue-minimisations  :    13
 total energy-change (2. order) :-0.3225502E-03  (-0.1117215E-04)
 number of electron      10.0000002 magnetization 
 augmentation part        1.0229947 magnetization 

 Broyden mixing:
  rms(total) = 0.17432E-02    rms(broyden)= 0.17427E-02
  rms(prec ) = 0.19778E-02
  weight for this iteration     100.00

 eigenvalues of (default mixing * dielectric matrix)
  average eigenvalue GAMMA=   1.9271
  6.6744  2.8012  2.2185  1.6304  1.6304  1.2012  1.2012  0.8810  0.9414  0.9414
  1.0765

 Free energy of the ion-electron system (eV)
  ---------------------------------------------------
  alpha Z        PSCENC =         0.40002888
  Ewald energy   TEWEN  =       300.97797248
  -1/2 Hartree   DENC   =      -716.27069925
  -exchange  EXHF       =         0.00000000
  -V(xc)+E(xc)   XCENC  =        45.63591757
  PAW double counting   =      6031.00803649    -6035.47390541
  entropy T*S    EENTRO =        -0.00000000
  eigenvalues    EBANDS =      -179.55775246
  atomic energy  EATOM  =       579.39041991
  ---------------------------------------------------
  free energy    TOTEN  =        26.11001822 eV

  energy without entropy =       26.11001822  energy(sigma->0) =       26.11001822


--------------------------------------------------------------------------------------------------------




----------------------------------------- Iteration    2(  13)  ---------------------------------------


    POTLOK:  cpu time    1.03: real time    1.03
    SETDIJ:  cpu time    0.00: real time    0.01
    EDDIAG:  cpu time    0.14: real time    0.13
  RMM-DIIS:  cpu time    0.38: real time    0.38
    ORTHCH:  cpu time    0.01: real time    0.01
       DOS:  cpu time    0.00: real time    0.00
    CHARGE:  cpu time    0.12: real time    0.13
    MIXING:  cpu time    0.09: real time    0.09
    --------------------------------------------
      LOOP:  cpu time    1.77: real time    1.77

 eigenvalue-minimisations  :    12
 total energy-change (2. order) :-0.1642538E-03  (-0.1885934E-05)
 number of electron      10.0000002 magnetization 
 augmentation part        1.0229740 magnetization 

 Broyden mixing:
  rms(total) = 0.14383E-02    rms(broyden)= 0.14383E-02
  rms(prec ) = 0.15685E-02
  weight for this iteration     100.00

 eigenvalues of (default mixing * dielectric matrix)
  average eigenvalue GAMMA=   2.1167
  8.1479  3.3122  2.6241  2.3929  1.5078  1.1784  1.1784  1.2561  0.8797  0.9528
  0.9528  1.0171

 Free energy of the ion-electron system (eV)
  ---------------------------------------------------
  alpha Z        PSCENC =         0.40002888
  Ewald energy   TEWEN  =       300.97797248
  -1/2 Hartree   DENC   =      -716.25995927
  -exchange  EXHF       =         0.00000000
  -V(xc)+E(xc)   XCENC  =        45.63530457
  PAW double counting   =      6031.10644778    -6035.57180099
  entropy T*S    EENTRO =        -0.00000000
  eigenvalues    EBANDS =      -179.56855940
  atomic energy  EATOM  =       579.39041991
  ---------------------------------------------------
  free energy    TOTEN  =        26.10985396 eV

  energy without entropy =       26.10985396  energy(sigma->0) =       26.10985396


--------------------------------------------------------------------------------------------------------




----------------------------------------- Iteration    2(  14)  ---------------------------------------


    POTLOK:  cpu time    1.18: real time    1.18
    SETDIJ:  cpu time    0.00: real time    0.01
    EDDIAG:  cpu time    0.14: real time    0.13
  RMM-DIIS:  cpu time    0.38: real time    0.39
    ORTHCH:  cpu time    0.01: real time    0.01
       DOS:  cpu time    0.00: real time    0.00
    CHARGE:  cpu time    0.11: real time    0.11
    MIXING:  cpu time    0.08: real time    0.08
    --------------------------------------------
      LOOP:  cpu time    1.90: real time    1.90

 eigenvalue-minimisations  :    12
 total energy-change (2. order) :-0.1606881E-03  (-0.1948469E-05)
 number of electron      10.0000002 magnetization 
 augmentation part        1.0230142 magnetization 

 Broyden mixing:
  rms(total) = 0.52092E-03    rms(broyden)= 0.52075E-03
  rms(prec ) = 0.68880E-03
  weight for this iteration     100.00

 eigenvalues of (default mixing * dielectric matrix)
  average eigenvalue GAMMA=   2.1835
  8.5756  4.1880  2.6433  2.0754  2.0754  1.1848  1.1848  1.3655  1.3655  0.9827
  0.9384  0.9384  0.8673

 Free energy of the ion-electron system (eV)
  ---------------------------------------------------
  alpha Z        PSCENC =         0.40002888
  Ewald energy   TEWEN  =       300.97797248
  -1/2 Hartree   DENC   =      -716.25102872
  -exchange  EXHF       =         0.00000000
[...]
  free energy    TOTEN  =       -14.79890635 eV

  energy without entropy =      -14.79890635  energy(sigma->0) =      -14.79890635


--------------------------------------------------------------------------------------------------------




----------------------------------------- Iteration   10(   2)  ---------------------------------------


    POTLOK:  cpu time    0.98: real time    0.98
    SETDIJ:  cpu time    0.00: real time    0.00
    EDDIAG:  cpu time    0.10: real time    0.10
  RMM-DIIS:  cpu time    0.22: real time    0.22
    ORTHCH:  cpu time    0.01: real time    0.01
       DOS:  cpu time    0.00: real time    0.00
    --------------------------------------------
      LOOP:  cpu time    1.30: real time    1.30

 eigenvalue-minimisations  :     9
 total energy-change (2. order) :-0.7502922E-05  (-0.6401758E-06)
 number of electron      10.0000051 magnetization 
 augmentation part        0.6525321 magnetization 

 Free energy of the ion-electron system (eV)
  ---------------------------------------------------
  alpha Z        PSCENC =         0.40002888
  Ewald energy   TEWEN  =       104.64972137
  -1/2 Hartree   DENC   =      -586.68737760
  -exchange  EXHF       =         0.00000000
  -V(xc)+E(xc)   XCENC  =        40.40607339
  PAW double counting   =       862.25377229     -864.70670642
  entropy T*S    EENTRO =        -0.00000000
  eigenvalues    EBANDS =      -150.50484568
  atomic energy  EATOM  =       579.39041991
  ---------------------------------------------------
  free energy    TOTEN  =       -14.79891385 eV

  energy without entropy =      -14.79891385  energy(sigma->0) =      -14.79891385


--------------------------------------------------------------------------------------------------------




 average (electrostatic) potential at core
  the test charge radii are     0.6991  0.7215
  (the norm of the test charge is              1.0000)
       1 -61.6020       2 -83.4559
 
 
 
 E-fermi :  -7.9223     XC(G=0):  -0.6229     alpha+bet : -0.1603


 k-point   1 :       0.0000    0.0000    0.0000
  band No.  band energies     occupation 
      1     -29.1384      2.00000
      2     -13.9317      2.00000
      3     -11.6265      2.00000
      4     -11.6259      2.00000
      5      -8.9301      2.00000
      6      -2.0350      0.00000
      7      -2.0337      0.00000
      8      -0.2306      0.00000
      9       0.9732      0.00000


--------------------------------------------------------------------------------------------------------


 soft charge-density along one line, spin component           1
         0         1         2         3         4         5         6         7         8         9
 total charge-density along one line
 
 pseudopotential strength for first ion, spin component:           1
 10.408  13.846  -0.000   0.025  -0.000   0.000  -0.083   0.000
 13.846  18.418  -0.000   0.033  -0.000   0.000  -0.110   0.000
 -0.000  -0.000  -4.542  -0.000  -0.000   8.893   0.000   0.000
  0.025   0.033  -0.000  -4.549  -0.000   0.000   8.896   0.000
 -0.000  -0.000  -0.000  -0.000  -4.542   0.000   0.000   8.893
  0.000   0.000   8.893   0.000   0.000 -19.561  -0.000  -0.000
 -0.083  -0.110   0.000   8.896   0.000  -0.000 -19.541  -0.000
  0.000   0.000   0.000   0.000   8.893  -0.000  -0.000 -19.561
 total augmentation occupancy for first ion, spin component:           1
  7.524  -3.436   0.000   2.084   0.000   0.000   0.376   0.000
 -3.436   1.965   0.000  -1.598   0.000   0.000  -0.232   0.000
  0.000   0.000   0.829   0.000   0.000   0.063   0.000   0.000
  2.084  -1.598   0.000   2.238   0.000   0.000   0.214   0.000
  0.000   0.000   0.000   0.000   0.828   0.000   0.000   0.063
  0.000   0.000   0.063   0.000   0.000   0.005   0.000   0.000
  0.376  -0.232   0.000   0.214   0.000   0.000   0.028   0.000
  0.000   0.000   0.000   0.000   0.063   0.000   0.000   0.005


------------------------ aborting loop because EDIFF is reached ----------------------------------------


    CHARGE:  cpu time    0.08: real time    0.08
    FORLOC:  cpu time    0.08: real time    0.08
    FORNL :  cpu time    0.06: real time    0.06
    STRESS:  cpu time    0.36: real time    0.36
    FORCOR:  cpu time    1.31: real time    1.31
    FORHAR:  cpu time    0.31: real time    0.31
    MIXING:  cpu time    0.04: real time    0.04

  FORCE on cell =-STRESS in cart. coord.  units (eV):
  Direction    XX          YY          ZZ          XY          YZ          ZX
  --------------------------------------------------------------------------------------
  Alpha Z     0.40003     0.40003     0.40003
  Ewald     -62.68142   -66.56248   233.89362    -0.00000     0.00000     0.00000
  Hartree   162.97039   159.19737   264.50545    -0.00000    -0.00000    -0.00000
  E(xc)     -43.98535   -43.98505   -42.87636     0.00000    -0.00000    -0.00000
  Local    -235.97123  -228.31216  -607.74316    -0.00000     0.00000     0.00000
  n-local   -18.46106   -18.45714   -29.78530     0.00000     0.00000    -0.00000
  augment     6.22195     6.22057     5.75550     0.00000     0.00000    -0.00000
  Kinetic   190.73106   190.73559   175.06240    -0.00000    -0.00000    -0.00000
  Fock        0.00000     0.00000     0.00000     0.00000     0.00000     0.00000
  -------------------------------------------------------------------------------------
  Total      -0.77562    -0.76325    -0.78783     0.00000     0.00000     0.00000
  in kB      -1.13766    -1.11952    -1.15556     0.00000     0.00000     0.00000
  external pressure =       -1.14 kB  Pullay stress =        0.00 kB


 VOLUME and BASIS-vectors are now :
 -----------------------------------------------------------------------------
  energy-cutoff  :      400.00
  volume of cell :     1092.32
      direct lattice vectors                 reciprocal lattice vectors
    10.100000000  0.000000000  0.000000000     0.099009901  0.000000000  0.000000000
     0.000000000 10.300000000  0.000000000     0.000000000  0.097087379  0.000000000
     0.000000000  0.000000000 10.500000000     0.000000000  0.000000000  0.095238095

  length of vectors
    10.100000000 10.300000000 10.500000000     0.099009901  0.097087379  0.095238095


 FORCES acting on ions
    electron-ion (+dipol)            ewald-force                    non-local-force                 convergence-correction
 -----------------------------------------------------------------------------------------------
   0.157E-14 0.864E-14 0.235E+03   0.884E-17 0.320E-16 -.263E+03   0.000E+00 0.000E+00 0.281E+02   0.114E-13 0.716E-14 0.349E-02
   0.439E-14 -.434E-14 -.203E+03   0.227E-16 -.176E-16 0.263E+03   0.000E+00 0.000E+00 -.594E+02   0.110E-13 0.355E-14 -.134E-01
 -----------------------------------------------------------------------------------------------
   0.596E-14 0.430E-14 0.314E+02   0.315E-16 0.144E-16 0.000E+00   0.000E+00 0.000E+00 -.313E+02   0.224E-13 0.107E-13 -.992E-02
 
 
 POSITION                                       TOTAL-FORCE (eV/Angst)
 -----------------------------------------------------------------------------------
      0.00000      0.00000      0.02806         0.000000      0.000000      0.025755
      0.00000      0.00000      1.17194         0.000000      0.000000     -0.025755
 -----------------------------------------------------------------------------------
    total drift:                                0.000000      0.000000      0.004248


--------------------------------------------------------------------------------------------------------



  FREE ENERGIE OF THE ION-ELECTRON SYSTEM (eV)
  ---------------------------------------------------
  free  energy   TOTEN  =       -14.79891385 eV

  energy  without entropy=      -14.79891385  energy(sigma->0) =      -14.79891385
 
 d Force =-0.2074277E-05[-0.922E-05, 0.507E-05]  d Energy = 0.3587395E-04-0.379E-04
 d Force = 0.9406788E-01[ 0.940E-01, 0.941E-01]  d Ewald  = 0.9406788E-01 0.465E-08


--------------------------------------------------------------------------------------------------------


    POTLOK:  cpu time    1.05: real time    1.05


--------------------------------------------------------------------------------------------------------


 Quasi-Newton relaxation of ions (Broydens 2nd method)
  g(Force)  = 0.640E-04   g(Stress)= 0.000E+00

 retain information from N=  1 steps
 eigenvalues of (default step * inverse Hessian matrix)
  average eigenvalue of G=   0.0929
 eigenvalue spectrum of G is  0.0929


--------------------------------------------------------------------------------------------------------


    WAVPRE:  cpu time    0.35: real time    0.35
 FEWALD executed in parallel
    FEWALD:  cpu time    0.00: real time    0.00
    ORTHCH:  cpu time    0.02: real time    0.02
     LOOP+:  cpu time    6.54: real time    6.55


----------------------------------------- Iteration   11(   1)  ---------------------------------------


    POTLOK:  cpu time    1.11: real time    1.11
    SETDIJ:  cpu time    0.00: real time    0.01
     EDDAV:  cpu time    0.50: real time    0.50
       DOS:  cpu time    0.00: real time    0.00
    CHARGE:  cpu time    0.10: real time    0.10
    MIXING:  cpu time    0.04: real time    0.04
    --------------------------------------------
      LOOP:  cpu time    1.75: real time    1.75

 eigenvalue-minimisations  :    20
 total energy-change (2. order) :-0.2002551E-04  (-0.1564952E-04)
 number of electron      10.0000051 magnetization 
 augmentation part        0.6526202 magnetization 

 Broyden mixing:
  rms(total) = 0.51185E-03    rms(broyden)= 0.51092E-03
  rms(prec ) = 0.59055E-03
  weight for this iteration     100.00

 Free energy of the ion-electron system (eV)
  ---------------------------------------------------
  alpha Z        PSCENC =         0.40002888
  Ewald energy   TEWEN  =       104.71040176
  -1/2 Hartree   DENC   =      -586.71623972
  -exchange  EXHF       =         0.00000000
  -V(xc)+E(xc)   XCENC  =        40.40673061
  PAW double counting   =       862.06327158     -864.51594678
  entropy T*S    EENTRO =        -0.00000000
  eigenvalues    EBANDS =      -150.53759261
  atomic energy  EATOM  =       579.39041991
  ---------------------------------------------------
  free energy    TOTEN  =       -14.79892638 eV

  energy without entropy =      -14.79892638  energy(sigma->0) =      -14.79892638


--------------------------------------------------------------------------------------------------------




----------------------------------------- Iteration   11(   2)  ---------------------------------------


    POTLOK:  cpu time    1.06: real time    1.05
    SETDIJ:  cpu time    0.00: real time    0.01
    EDDIAG:  cpu time    0.11: real time    0.11
  RMM-DIIS:  cpu time    0.24: real time    0.24
    ORTHCH:  cpu time    0.00: real time    0.01
       DOS:  cpu time    0.00: real time    0.00
    --------------------------------------------
      LOOP:  cpu time    1.41: real time    1.41

 eigenvalue-minimisations  :     9
 total energy-change (2. order) :-0.4040408E-05  (-0.2481505E-06)
 number of electron      10.0000051 magnetization 
 augmentation part        0.6526202 magnetization 

 Free energy of the ion-electron system (eV)
  ---------------------------------------------------
  alpha Z        PSCENC =         0.40002888
  Ewald energy   TEWEN  =       104.71040176
  -1/2 Hartree   DENC   =      -586.72320861
  -exchange  EXHF       =         0.00000000
  -V(xc)+E(xc)   XCENC  =        40.40714098
  PAW double counting   =       862.19374863     -864.64652500
  entropy T*S    EENTRO =        -0.00000000
  eigenvalues    EBANDS =      -150.53093698
  atomic energy  EATOM  =       579.39041991
  ---------------------------------------------------
  free energy    TOTEN  =       -14.79893042 eV

  energy without entropy =      -14.79893042  energy(sigma->0) =      -14.79893042


--------------------------------------------------------------------------------------------------------




 average (electrostatic) potential at core
  the test charge radii are     0.6991  0.7215
  (the norm of the test charge is              1.0000)
       1 -61.6039       2 -83.4589
 
 
 
 E-fermi :  -7.9223     XC(G=0):  -0.6182     alpha+bet : -0.1603


 k-point   1 :       0.0000    0.0000    0.0000
  band No.  band energies     occupation 
      1     -29.1438      2.00000
      2     -13.9323      2.00000
      3     -11.6296      2.00000
      4     -11.6290      2.00000
      5      -8.9307      2.00000
      6      -2.0338      0.00000
      7      -2.0325      0.00000
      8      -0.2260      0.00000
      9       0.9718      0.00000


--------------------------------------------------------------------------------------------------------


 soft charge-density along one line, spin component           1
         0         1         2         3         4         5         6         7         8         9
 total charge-density along one line
 
 pseudopotential strength for first ion, spin component:           1
 10.408  13.846   0.000   0.025  -0.000  -0.000  -0.083   0.000
 13.846  18.419   0.000   0.033  -0.000  -0.000  -0.110   0.000
  0.000   0.000  -4.542  -0.000  -0.000   8.893   0.000   0.000
  0.025   0.033  -0.000  -4.550   0.000   0.000   8.896  -0.000
 -0.000  -0.000  -0.000   0.000  -4.542   0.000  -0.000   8.893
 -0.000  -0.000   8.893   0.000   0.000 -19.562  -0.000  -0.000
 -0.083  -0.110   0.000   8.896  -0.000  -0.000 -19.542   0.000
  0.000   0.000   0.000  -0.000   8.893  -0.000   0.000 -19.562
 total augmentation occupancy for first ion, spin component:           1
  7.533  -3.442   0.000   2.089   0.000   0.000   0.377   0.000
 -3.442   1.969   0.000  -1.602   0.000   0.000  -0.232   0.000
  0.000   0.000   0.829   0.000   0.000   0.063   0.000   0.000
  2.089  -1.602   0.000   2.239   0.000   0.000   0.214   0.000
  0.000   0.000   0.000   0.000   0.829   0.000   0.000   0.063
  0.000   0.000   0.063   0.000   0.000   0.005   0.000   0.000
  0.377  -0.232   0.000   0.214   0.000   0.000   0.028   0.000
  0.000   0.000   0.000   0.000   0.063   0.000   0.000   0.005


------------------------ aborting loop because EDIFF is reached ----------------------------------------


    CHARGE:  cpu time    0.10: real time    0.10
    FORLOC:  cpu time    0.08: real time    0.08
    FORNL :  cpu time    0.07: real time    0.07
    STRESS:  cpu time    0.42: real time    0.42
    FORCOR:  cpu time    1.36: real time    1.37
    FORHAR:  cpu time    0.33: real time    0.33
    MIXING:  cpu time    0.04: real time    0.04

  FORCE on cell =-STRESS in cart. coord.  units (eV):
  Direction    XX          YY          ZZ          XY          YZ          ZX
  --------------------------------------------------------------------------------------
  Alpha Z     0.40003     0.40003     0.40003
  Ewald     -62.68122   -66.56230   233.95392     0.00000    -0.00000    -0.00000
  Hartree   162.99209   159.21903   264.52770    -0.00000    -0.00000    -0.00000
  E(xc)     -43.98641   -43.98610   -42.87744     0.00000    -0.00000    -0.00000
  Local    -235.99243  -228.33330  -607.80197     0.00000     0.00000     0.00000
  n-local   -18.46417   -18.46025   -29.79283    -0.00000    -0.00000     0.00000
  augment     6.22301     6.22163     5.75463     0.00000     0.00000     0.00000
  Kinetic   190.74988   190.75442   175.07961    -0.00000    -0.00000    -0.00000
  Fock        0.00000     0.00000     0.00000     0.00000     0.00000     0.00000
  -------------------------------------------------------------------------------------
  Total      -0.75923    -0.74684    -0.75635     0.00000     0.00000     0.00000
  in kB      -1.11362    -1.09544    -1.10940     0.00000     0.00000     0.00000
  external pressure =       -1.11 kB  Pullay stress =        0.00 kB


 VOLUME and BASIS-vectors are now :
 -----------------------------------------------------------------------------
  energy-cutoff  :      400.00
  volume of cell :     1092.32
      direct lattice vectors                 reciprocal lattice vectors
    10.100000000  0.000000000  0.000000000     0.099009901  0.000000000  0.000000000
     0.000000000 10.300000000  0.000000000     0.000000000  0.097087379  0.000000000
     0.000000000  0.000000000 10.500000000     0.000000000  0.000000000  0.095238095

  length of vectors
    10.100000000 10.300000000 10.500000000     0.099009901  0.097087379  0.095238095


 FORCES acting on ions
    electron-ion (+dipol)            ewald-force                    non-local-force                 convergence-correction
 -----------------------------------------------------------------------------------------------
   -.317E-14 0.196E-15 0.235E+03   -.522E-17 0.155E-16 -.263E+03   0.000E+00 0.000E+00 0.281E+02   0.162E-13 0.722E-14 -.459E-03
   0.600E-14 -.910E-15 -.203E+03   0.367E-16 -.115E-17 0.263E+03   0.000E+00 0.000E+00 -.595E+02   0.195E-13 0.127E-13 0.116E-01
 -----------------------------------------------------------------------------------------------
   0.284E-14 -.714E-15 0.314E+02   0.315E-16 0.144E-16 0.000E+00   0.000E+00 0.000E+00 -.314E+02   0.358E-13 0.199E-13 0.112E-01
 
 
 POSITION                                       TOTAL-FORCE (eV/Angst)
 -----------------------------------------------------------------------------------
      0.00000      0.00000      0.02817         0.000000      0.000000      0.005996
      0.00000      0.00000      1.17183         0.000000      0.000000     -0.005996
 -----------------------------------------------------------------------------------
    total drift:                                0.000000      0.000000      0.003259


--------------------------------------------------------------------------------------------------------



  FREE ENERGIE OF THE ION-ELECTRON SYSTEM (eV)
  ---------------------------------------------------
  free  energy   TOTEN  =       -14.79893042 eV

  energy  without entropy=      -14.79893042  energy(sigma->0) =      -14.79893042
 
 d Force = 0.3666441E-05[ 0.138E-05, 0.595E-05]  d Energy = 0.1656299E-04-0.129E-04
 d Force =-0.6068039E-01[-0.607E-01,-0.607E-01]  d Ewald  =-0.6068039E-01-0.130E-08


--------------------------------------------------------------------------------------------------------


    POTLOK:  cpu time    1.01: real time    1.01


--------------------------------------------------------------------------------------------------------


 Quasi-Newton relaxation of ions (Broydens 2nd method)
  g(Force)  = 0.347E-05   g(Stress)= 0.000E+00

 retain information from N=  1 steps
 eigenvalues of (default step * inverse Hessian matrix)
  average eigenvalue of G=   0.1211
 eigenvalue spectrum of G is  0.1211


--------------------------------------------------------------------------------------------------------


  
 reached required accuracy - stopping structural energy minimisation
     LOOP+:  cpu time    6.57: real time    8.16
    4ORBIT:  cpu time    0.00: real time    0.00

 total amount of memory used by VASP on root node   140193. kBytes
========================================================================

   base      :      30000. kBytes
   nonl-proj :       3171. kBytes
   fftplans  :      37440. kBytes
   grid      :      66720. kBytes
   one-center:          6. kBytes
   wavefun   :       2856. kBytes
 
  
  
 General timing and accounting informations for this job:
 ========================================================
  
                  Total CPU time used (sec):      153.808
                            User time (sec):      153.008
                          System time (sec):        0.800
                         Elapsed time (sec):      155.564
  
                   Maximum memory used (kb):      226288.
                   Average memory used (kb):           0.
  
                          Minor page faults:       136404
                          Major page faults:            0
                 Voluntary context switches:            8
