 vasp.5.3.3 18Dez12 (build Sep  7 2015 22:32:56) complex                        
  
 executed on             LinuxIFC date 2002.02.05  01:24:30
 running on    1 total cores
 distrk:  each k-point on    1 cores,    1 groups
 distr:  one band on NCORES_PER_BAND=   1 cores,    1 groups


--------------------------------------------------------------------------------------------------------


 INCAR:
 POTCAR:    PAW_PBE C 08Apr2002                   
 POTCAR:    PAW_PBE O 08Apr2002                   
 POTCAR:    PAW_PBE C 08Apr2002                   
   VRHFIN =C: s2p2                                                              
   LEXCH  = PE                                                                  
   EATOM  =   147.1560 eV,   10.8157 Ry                                         
                                                                                
   TITEL  = PAW_PBE C 08Apr2002                                                 
   LULTRA =        F    use ultrasoft PP ?                                      
   IUNSCR =        1    unscreen: 0-lin 1-nonlin 2-no                           
   RPACOR =    1.200    partial core radius                                     
   POMASS =   12.011; ZVAL   =    4.000    mass and valenz                      
   RCORE  =    1.500    outmost cutoff radius                                   
   RWIGS  =    1.630; RWIGS  =    0.863    wigner-seitz radius (au A)           
   ENMAX  =  400.000; ENMIN  =  300.000 eV                                      
   ICORE  =        2    local potential                                         
   LCOR   =        T    correct aug charges                                     
   LPAW   =        T    paw PP                                                  
   EAUG   =  644.873                                                            
   DEXC   =    0.000                                                            
   RMAX   =    1.529    core radius for proj-oper                               
   RAUG   =    1.300    factor for augmentation sphere                          
   RDEP   =    1.501    radius for radial grids                                 
   RDEPT  =    1.300    core radius for aug-charge                              
                                                                                
   Atomic configuration                                                         
    4 entries                                                                   
     n  l   j            E        occ.                                          
     1  0  0.50      -273.3789   2.0000                                         
     2  0  0.50       -13.7508   2.0000                                         
     2  1  0.50        -5.2854   2.0000                                         
     3  2  1.50        -5.4423   0.0000                                         
   Description                                                                  
     l       E           TYP  RCUT    TYP  RCUT                                 
     0    -13.7508458     23  1.200                                             
     0     -8.2022199     23  1.200                                             
     1     -5.2854383     23  1.500                                             
     1     34.0145650     23  1.500                                             
     2     -5.4423304      7  1.500                                             
  local pseudopotential read in
  partial core-charges read in
  partial kinetic energy density read in
  atomic valenz-charges read in
  non local Contribution for L=           0  read in
    real space projection operators read in
  non local Contribution for L=           0  read in
    real space projection operators read in
  non local Contribution for L=           1  read in
    real space projection operators read in
  non local Contribution for L=           1  read in
    real space projection operators read in
    PAW grid and wavefunctions read in
 
   number of l-projection  operators is LMAX  =           4
   number of lm-projection operators is LMMAX =           8
 
 POTCAR:    PAW_PBE O 08Apr2002                   
   VRHFIN =O: s2p4                                                              
   LEXCH  = PE                                                                  
   EATOM  =   432.3788 eV,   31.7789 Ry                                         
                                                                                
   TITEL  = PAW_PBE O 08Apr2002                                                 
   LULTRA =        F    use ultrasoft PP ?                                      
   IUNSCR =        1    unscreen: 0-lin 1-nonlin 2-no                           
   RPACOR =    1.200    partial core radius                                     
   POMASS =   16.000; ZVAL   =    6.000    mass and valenz                      
   RCORE  =    1.520    outmost cutoff radius                                   
   RWIGS  =    1.550; RWIGS  =    0.820    wigner-seitz radius (au A)           
   ENMAX  =  400.000; ENMIN  =  300.000 eV                                      
   ICORE  =        2    local potential                                         
   LCOR   =        T    correct aug charges                                     
   LPAW   =        T    paw PP                                                  
   EAUG   =  605.392                                                            
   DEXC   =    0.000                                                            
   RMAX   =    1.553    core radius for proj-oper                               
   RAUG   =    1.300    factor for augmentation sphere                          
   RDEP   =    1.550    radius for radial grids                                 
   RDEPT  =    1.329    core radius for aug-charge                              
                                                                                
   Atomic configuration                                                         
    4 entries                                                                   
     n  l   j            E        occ.                                          
     1  0  0.50      -514.6923   2.0000                                         
     2  0  0.50       -23.9615   2.0000                                         
     2  1  0.50        -9.0305   4.0000                                         
     3  2  1.50        -9.5241   0.0000                                         
   Description                                                                  
     l       E           TYP  RCUT    TYP  RCUT                                 
     0    -23.9615318     23  1.200                                             
     0     -9.5240782     23  1.200                                             
     1     -9.0304911     23  1.520                                             
     1      8.1634956     23  1.520                                             
     2     -9.5240782      7  1.500                                             
  local pseudopotential read in
  partial core-charges read in
  partial kinetic energy density read in
  kinetic energy density of atom read in
  atomic valenz-charges read in
  non local Contribution for L=           0  read in
    real space projection operators read in
  non local Contribution for L=           0  read in
    real space projection operators read in
  non local Contribution for L=           1  read in
    real space projection operators read in
  non local Contribution for L=           1  read in
    real space projection operators read in
    PAW grid and wavefunctions read in
 
   number of l-projection  operators is LMAX  =           4
   number of lm-projection operators is LMMAX =           8
 
  PAW_PBE C 08Apr2002                   :
 energy of atom  1       EATOM= -147.1560
 kinetic energy error for atom=    0.0288 (will be added to EATOM!!)
  PAW_PBE O 08Apr2002                   :
 energy of atom  2       EATOM= -432.3788
 kinetic energy error for atom=    0.1156 (will be added to EATOM!!)
 
 
 POSCAR: CO molecule in a box                    
  positions in cartesian coordinates
  No initial velocities read in
 exchange correlation table for  LEXCH =        8
   RHO(1)=    0.500       N(1)  =     2000
   RHO(2)=  100.500       N(2)  =     4000
 


--------------------------------------------------------------------------------------------------------


 ion  position               nearest neighbor table
   1  0.000  0.000  0.000-
   2  0.000  0.000  0.533-
 
  LATTYP: Found a simple orthorhombic cell.
 ALAT       =    10.1000000000
 B/A-ratio  =     1.0198019802
 C/A-ratio  =     1.0396039604
  
  Lattice vectors:
  
 A1 = (  10.1000000000,   0.0000000000,   0.0000000000)
 A2 = (   0.0000000000,  10.3000000000,   0.0000000000)
 A3 = (   0.0000000000,   0.0000000000,  10.5000000000)


Analysis of symmetry for initial positions (statically):
=====================================================================
 Subroutine PRICEL returns:
 Original cell was already a primitive cell.
 

 Routine SETGRP: Setting up the symmetry group for a 
 simple orthorhombic supercell.


 Subroutine GETGRP returns: Found  4 space group operations
 (whereof  4 operations were pure point group operations)
 out of a pool of  8 trial point group operations.


The static configuration has the point symmetry C_2v.


Analysis of symmetry for dynamics (positions and initial velocities):
=====================================================================
 Subroutine PRICEL returns:
 Original cell was already a primitive cell.
 

 Routine SETGRP: Setting up the symmetry group for a 
 simple orthorhombic supercell.


 Subroutine GETGRP returns: Found  4 space group operations
 (whereof  4 operations were pure point group operations)
 out of a pool of  8 trial point group operations.


The dynamic configuration has the point symmetry C_2v.


Analysis of constrained symmetry for selective dynamics:
=====================================================================
 Subroutine PRICEL returns:
 Original cell was already a primitive cell.
 

 Routine SETGRP: Setting up the symmetry group for a 
 simple orthorhombic supercell.


 Subroutine GETGRP returns: Found  4 space group operations
 (whereof  4 operations were pure point group operations)
 out of a pool of  8 trial point group operations.


The constrained configuration has the point symmetry C_2v.


 irot  :   1
 --------------------------------------------------------------------
 isymop:   1   0   0
           0   1   0
           0   0   1

 gtrans:     0.0000000     0.0000000     0.0000000

 ptrans:     0.0000000     0.0000000     0.0000000
 rotmap:
 (   1->   1)  (   2->   2) 


 irot  :   2
 --------------------------------------------------------------------
 isymop:  -1   0   0
           0  -1   0
           0   0   1

 gtrans:     0.0000000     0.0000000     0.0000000

 ptrans:     0.0000000     0.0000000     0.0000000
 rotmap:
 (   1->   1)  (   2->   2) 


 irot  :   3
 --------------------------------------------------------------------
 isymop:   1   0   0
           0  -1   0
           0   0   1

 gtrans:     0.0000000     0.0000000     0.0000000

 ptrans:     0.0000000     0.0000000     0.0000000
 rotmap:
 (   1->   1)  (   2->   2) 


 irot  :   4
 --------------------------------------------------------------------
 isymop:  -1   0   0
           0   1   0
           0   0   1

 gtrans:     0.0000000     0.0000000     0.0000000

 ptrans:     0.0000000     0.0000000     0.0000000
 rotmap:
 (   1->   1)  (   2->   2) 
 
 
 KPOINTS: Gamma-point only                        

Automatic generation of k-mesh.
Space group operators:
 irot       det(A)        alpha          n_x          n_y          n_z        tau_x        tau_y        tau_z
    1     1.000000     0.000000     1.000000     0.000000     0.000000     0.000000     0.000000     0.000000
    2     1.000000   180.000000     0.000000     0.000000     1.000000     0.000000     0.000000     0.000000
    3    -1.000000   180.000000     0.000000     1.000000     0.000000     0.000000     0.000000     0.000000
    4    -1.000000   180.000000     1.000000     0.000000     0.000000     0.000000     0.000000     0.000000
 
 Subroutine IBZKPT returns following result:
 ===========================================
 
 Found      1 irreducible k-points:
 
 Following reciprocal coordinates:
            Coordinates               Weight
  0.000000  0.000000  0.000000      1.000000
 
 Following cartesian coordinates:
            Coordinates               Weight
  0.000000  0.000000  0.000000      1.000000
 


--------------------------------------------------------------------------------------------------------




 Dimension of arrays:
   k-points           NKPTS =      1   k-points in BZ     NKDIM =      1   number of bands    NBANDS=      9
   number of dos      NEDOS =    301   number of ions     NIONS =      2
   non local maximal  LDIM  =      4   non local SUM 2l+1 LMDIM =      8
   total plane-waves  NPLWV = 135000
   max r-space proj   IRMAX =      1   max aug-charges    IRDMAX=   1803
   dimension x,y,z NGX =    50 NGY =   50 NGZ =   54
   dimension x,y,z NGXF=   100 NGYF=  100 NGZF=  108
   support grid    NGXF=   100 NGYF=  100 NGZF=  108
   ions per type =               1   1
 NGX,Y,Z   is equivalent  to a cutoff of   8.23,  8.07,  8.55 a.u.
 NGXF,Y,Z  is equivalent  to a cutoff of  16.46, 16.14, 17.10 a.u.


 I would recommend the setting:
   dimension x,y,z NGX =    49 NGY =   50 NGZ =   51
 SYSTEM =  Hello World                             
 POSCAR =  CO molecule in a box                    

 Startparameter for this run:
   NWRITE =      2    write-flag & timer
   PREC   = normal    normal or accurate (medium, high low for compatibility)
   ISTART =      0    job   : 0-new  1-cont  2-samecut
   ICHARG =      2    charge: 1-file 2-atom 10-const
   ISPIN  =      1    spin polarized calculation?
   LNONCOLLINEAR =      F non collinear calculations
   LSORBIT =      F    spin-orbit coupling
   INIWAV =      1    electr: 0-lowe 1-rand  2-diag
   LASPH  =      F    aspherical Exc in radial PAW
   METAGGA=      F    non-selfconsistent MetaGGA calc.

 Electronic Relaxation 1
   ENCUT  =  400.0 eV  29.40 Ry    5.42 a.u.  16.47 16.80 17.12*2*pi/ulx,y,z
   ENINI  =  400.0     initial cutoff
   ENAUG  =  644.9 eV  augmentation charge cutoff
   NELM   =     60;   NELMIN=  2; NELMDL=  0     # of ELM steps 
   EDIFF  = 0.1E-03   stopping-criterion for ELM
   LREAL  =      F    real-space projection
   NLSPLINE    = F    spline interpolate recip. space projectors
   LCOMPAT=      F    compatible to vasp.4.4
   GGA_COMPAT  = T    GGA compatible to vasp.4.4-vasp.4.6
   LMAXPAW     = -100 max onsite density
   LMAXMIX     =    2 max onsite mixed and CHGCAR
   VOSKOWN=      0    Vosko Wilk Nusair interpolation
   ROPT   =    0.00000   0.00000
 Ionic relaxation
   EDIFFG = -.1E-01   stopping-criterion for IOM
   NSW    =      0    number of steps for IOM
   NBLOCK =      1;   KBLOCK =      1    inner block; outer block 
   IBRION =     -1    ionic relax: 0-MD 1-quasi-New 2-CG
   NFREE  =      0    steps in history (QN), initial steepest desc. (CG)
   ISIF   =      2    stress and relaxation
   IWAVPR =     10    prediction:  0-non 1-charg 2-wave 3-comb
   ISYM   =      2    0-nonsym 1-usesym 2-fastsym
   LCORR  =      T    Harris-Foulkes like correction to forces

   POTIM  = 0.5000    time-step for ionic-motion
   TEIN   =    0.0    initial temperature
   TEBEG  =    0.0;   TEEND  =   0.0 temperature during run
   SMASS  =  -3.00    Nose mass-parameter (am)
   estimated Nose-frequenzy (Omega)   =  0.10E-29 period in steps =****** mass=  -0.233E-26a.u.
   SCALEE = 1.0000    scale energy and forces
   NPACO  =    256;   APACO  = 16.0  distance and # of slots for P.C.
   PSTRESS=    0.0 pullay stress

  Mass of Ions in am
   POMASS =  12.01 16.00
  Ionic Valenz
   ZVAL   =   4.00  6.00
  Atomic Wigner-Seitz radii
   RWIGS  =  -1.00 -1.00
  virtual crystal weights 
   VCA    =   1.00  1.00
   NELECT =      10.0000    total number of electrons
   NUPDOWN=      -1.0000    fix difference up-down

 DOS related values:
   EMIN   =  10.00;   EMAX   =-10.00  energy-range for DOS
   EFERMI =   0.00
   ISMEAR =     0;   SIGMA  =   0.20  broadening in eV -4-tet -1-fermi 0-gaus

 Electronic relaxation 2 (details)
   IALGO  =     68    algorithm
   LDIAG  =      T    sub-space diagonalisation (order eigenvalues)
   LSUBROT=      T    optimize rotation matrix (better conditioning)
   TURBO    =      0    0=normal 1=particle mesh
   IRESTART =      0    0=no restart 2=restart with 2 vectors
   NREBOOT  =      0    no. of reboots
   NMIN     =      0    reboot dimension
   EREF     =   0.00    reference energy to select bands
   IMIX   =      4    mixing-type and parameters
     AMIX     =   0.40;   BMIX     =  1.00
     AMIX_MAG =   1.60;   BMIX_MAG =  1.00
     AMIN     =   0.10
     WC   =   100.;   INIMIX=   1;  MIXPRE=   1;  MAXMIX= -45

 Intra band minimization:
   WEIMIN = 0.0000     energy-eigenvalue tresh-hold
   EBREAK =  0.28E-05  absolut break condition
   DEPER  =   0.30     relativ break condition  

   TIME   =   0.40     timestep for ELM

  volume/ion in A,a.u.               =     546.16      3685.65
  Fermi-wavevector in a.u.,A,eV,Ry     =   0.342472  0.647179  1.595791  0.117287
  Thomas-Fermi vector in A             =   1.247862
 
 Write flags
   LWAVE  =      F    write WAVECAR
   LCHARG =      F    write CHGCAR
   LVTOT  =      F    write LOCPOT, total local potential
   LVHAR  =      F    write LOCPOT, Hartree potential only
   LELF   =      F    write electronic localiz. function (ELF)
   LORBIT =      0    0 simple, 1 ext, 2 COOP (PROOUT)


 Dipole corrections
   LMONO  =      F    monopole corrections only (constant potential shift)
   LDIPOL =      F    correct potential (dipole corrections)
   IDIPOL =      0    1-x, 2-y, 3-z, 4-all directions 
   EPSILON=  1.0000000 bulk dielectric constant

 Exchange correlation treatment:
   GGA     =    --    GGA type
   LEXCH   =     8    internal setting for exchange type
   VOSKOWN=      0    Vosko Wilk Nusair interpolation
   LHFCALC =     F    Hartree Fock is set to
   LHFONE  =     F    Hartree Fock one center treatment
   AEXX    =    0.0000 exact exchange contribution

 Linear response parameters
   LEPSILON=     F    determine dielectric tensor
   LRPA    =     F    only Hartree local field effects (RPA)
   LNABLA  =     F    use nabla operator in PAW spheres
   LVEL    =     F    velocity operator in full k-point grid
   LINTERFAST=   F  fast interpolation
   KINTER  =     0    interpolate to denser k-point grid
   CSHIFT  =0.1000    complex shift for real part using Kramers Kronig
   OMEGAMAX=  -1.0    maximum frequency
   DEG_THRESHOLD= 0.2000000E-02 threshold for treating states as degnerate
   RTIME   =    0.100 relaxation time in fs

 Orbital magnetization related:
   ORBITALMAG=     F  switch on orbital magnetization
   LCHIMAG   =     F  perturbation theory with respect to B field
   DQ        =  0.001000  dq finite difference perturbation B field



--------------------------------------------------------------------------------------------------------


 Static calculation
 charge density and potential will be updated during run
 non-spin polarized calculation
 RMM-DIIS sequential band-by-band and
  variant of blocked Davidson during initial phase
 perform sub-space diagonalisation
    before iterative eigenvector-optimisation
 modified Broyden-mixing scheme, WC =      100.0
 initial mixing is a Kerker type mixing with AMIX =  0.4000 and BMIX =      1.0000
 Hartree-type preconditioning will be used
 using additional bands            4
 reciprocal scheme for non local part
 use partial core corrections
 calculate Harris-corrections to forces 
   (improved forces if not selfconsistent)
 use gradient corrections 
 use of overlap-Matrix (Vanderbilt PP)
 Gauss-broadening in eV      SIGMA  =   0.20


--------------------------------------------------------------------------------------------------------


  energy-cutoff  :      400.00
  volume of cell :     1092.32
      direct lattice vectors                 reciprocal lattice vectors
    10.100000000  0.000000000  0.000000000     0.099009901  0.000000000  0.000000000
     0.000000000 10.300000000  0.000000000     0.000000000  0.097087379  0.000000000
     0.000000000  0.000000000 10.500000000     0.000000000  0.000000000  0.095238095

  length of vectors
    10.100000000 10.300000000 10.500000000     0.099009901  0.097087379  0.095238095


 
 k-points in units of 2pi/SCALE and weight: Gamma-point only                        
   0.00000000  0.00000000  0.00000000       1.000
 
 k-points in reciprocal lattice and weights: Gamma-point only                        
   0.00000000  0.00000000  0.00000000       1.000
 
 position of ions in fractional coordinates (direct lattice) 
   0.00000000  0.00000000  0.00000000
   0.00000000  0.00000000  0.53333333
 
 position of ions in cartesian coordinates  (Angst):
   0.00000000  0.00000000  0.00000000
   0.00000000  0.00000000  5.60000000
 


--------------------------------------------------------------------------------------------------------


 k-point  1 :   0.0000 0.0000 0.0000  plane waves:   19819

 maximum and minimum number of plane-waves per node :     19819    19819

 maximum number of plane-waves:     19819
 maximum index in each direction: 
   IXMAX=   16   IYMAX=   16   IZMAX=   17
   IXMIN=  -16   IYMIN=  -16   IZMIN=  -17

 WARNING: aliasing errors must be expected set NGX to  66 to avoid them
 WARNING: aliasing errors must be expected set NGY to  66 to avoid them
 WARNING: aliasing errors must be expected set NGZ to  70 to avoid them
 aliasing errors are usually negligible using standard VASP settings
 and one can safely disregard these warnings

 serial   3D FFT for wavefunctions
 parallel 3D FFT for charge:
    minimum data exchange during FFTs selected (reduces bandwidth)


 total amount of memory used by VASP on root node   140193. kBytes
========================================================================

   base      :      30000. kBytes
   nonl-proj :       3171. kBytes
   fftplans  :      37440. kBytes
   grid      :      66720. kBytes
   one-center:          6. kBytes
   wavefun   :       2856. kBytes
 
 Broyden mixing: mesh for mixing (old mesh)
   NGX = 33   NGY = 33   NGZ = 35
  (NGX  =100   NGY  =100   NGZ  =108)
  gives a total of  38115 points

 initial charge density was supplied:
 charge density of overlapping atoms calculated
 number of electron      10.0000000 magnetization 
 keeping initial charge density in first step


--------------------------------------------------------------------------------------------------------


 Maximum index for augmentation-charges         1529 (set IRDMAX)


--------------------------------------------------------------------------------------------------------


 First call to EWALD:  gamma=   0.172
 Maximum number of real-space cells 3x 3x 3
 Maximum number of reciprocal cells 3x 3x 3

 FEWALD executed in parallel
    FEWALD:  cpu time    0.00: real time    0.00


----------------------------------------- Iteration    1(   1)  ---------------------------------------


    POTLOK:  cpu time    0.78: real time    0.78
    SETDIJ:  cpu time    0.00: real time    0.00
     EDDAV:  cpu time    0.48: real time    0.48
       DOS:  cpu time    0.00: real time    0.00
    --------------------------------------------
      LOOP:  cpu time    1.26: real time    1.26

 eigenvalue-minimisations  :    26
 total energy-change (2. order) : 0.5371627E+02  (-0.1914032E+03)
 number of electron      10.0000000 magnetization 
 augmentation part       10.0000000 magnetization 

 Free energy of the ion-electron system (eV)
  ---------------------------------------------------
  alpha Z        PSCENC =         0.40002888
  Ewald energy   TEWEN  =      -107.64894697
  -1/2 Hartree   DENC   =      -386.13110807
  -exchange  EXHF       =         0.00000000
  -V(xc)+E(xc)   XCENC  =        36.69058987
  PAW double counting   =       455.07152327     -457.43959975
  entropy T*S    EENTRO =        -0.00438188
  eigenvalues    EBANDS =       -66.61225466
  atomic energy  EATOM  =       579.39041991
  ---------------------------------------------------
  free energy    TOTEN  =        53.71627061 eV

  energy without entropy =       53.72065249  energy(sigma->0) =       53.71846155


--------------------------------------------------------------------------------------------------------




----------------------------------------- Iteration    1(   2)  ---------------------------------------


     EDDAV:  cpu time    0.40: real time    0.40
       DOS:  cpu time    0.00: real time    0.00
    --------------------------------------------
      LOOP:  cpu time    0.40: real time    0.40

 eigenvalue-minimisations  :    35
 total energy-change (2. order) :-0.4412027E+02  (-0.4388033E+02)
 number of electron      10.0000000 magnetization 
 augmentation part       10.0000000 magnetization 

 Free energy of the ion-electron system (eV)
  ---------------------------------------------------
  alpha Z        PSCENC =         0.40002888
  Ewald energy   TEWEN  =      -107.64894697
  -1/2 Hartree   DENC   =      -386.13110807
  -exchange  EXHF       =         0.00000000
  -V(xc)+E(xc)   XCENC  =        36.69058987
  PAW double counting   =       455.07152327     -457.43959975
  entropy T*S    EENTRO =        -0.00000001
  eigenvalues    EBANDS =      -110.73691019
  atomic energy  EATOM  =       579.39041991
  ---------------------------------------------------
  free energy    TOTEN  =         9.59599695 eV

  energy without entropy =        9.59599696  energy(sigma->0) =        9.59599695


--------------------------------------------------------------------------------------------------------




----------------------------------------- Iteration    1(   3)  ---------------------------------------


     EDDAV:  cpu time    0.32: real time    0.32
       DOS:  cpu time    0.00: real time    0.00
    --------------------------------------------
      LOOP:  cpu time    0.32: real time    0.32

 eigenvalue-minimisations  :    28
 total energy-change (2. order) :-0.1638251E+02  (-0.1638243E+02)
 number of electron      10.0000000 magnetization 
 augmentation part       10.0000000 magnetization 

 Free energy of the ion-electron system (eV)
  ---------------------------------------------------
  alpha Z        PSCENC =         0.40002888
  Ewald energy   TEWEN  =      -107.64894697
  -1/2 Hartree   DENC   =      -386.13110807
  -exchange  EXHF       =         0.00000000
  -V(xc)+E(xc)   XCENC  =        36.69058987
  PAW double counting   =       455.07152327     -457.43959975
  entropy T*S    EENTRO =        -0.00000000
  eigenvalues    EBANDS =      -127.11941524
  atomic energy  EATOM  =       579.39041991
  ---------------------------------------------------
  free energy    TOTEN  =        -6.78650809 eV

  energy without entropy =       -6.78650809  energy(sigma->0) =       -6.78650809


--------------------------------------------------------------------------------------------------------




----------------------------------------- Iteration    1(   4)  ---------------------------------------


     EDDAV:  cpu time    0.24: real time    0.24
       DOS:  cpu time    0.00: real time    0.00
    --------------------------------------------
      LOOP:  cpu time    0.24: real time    0.24

 eigenvalue-minimisations  :    18
 total energy-change (2. order) :-0.6804650E+00  (-0.6804563E+00)
 number of electron      10.0000000 magnetization 
 augmentation part       10.0000000 magnetization 

 Free energy of the ion-electron system (eV)
  ---------------------------------------------------
  alpha Z        PSCENC =         0.40002888
  Ewald energy   TEWEN  =      -107.64894697
  -1/2 Hartree   DENC   =      -386.13110807
  -exchange  EXHF       =         0.00000000
  -V(xc)+E(xc)   XCENC  =        36.69058987
  PAW double counting   =       455.07152327     -457.43959975
  entropy T*S    EENTRO =        -0.00000000
  eigenvalues    EBANDS =      -127.79988025
  atomic energy  EATOM  =       579.39041991
  ---------------------------------------------------
  free energy    TOTEN  =        -7.46697310 eV

  energy without entropy =       -7.46697310  energy(sigma->0) =       -7.46697310


--------------------------------------------------------------------------------------------------------




----------------------------------------- Iteration    1(   5)  ---------------------------------------


     EDDAV:  cpu time    0.31: real time    0.31
       DOS:  cpu time    0.00: real time    0.00
    CHARGE:  cpu time    0.06: real time    0.06
    MIXING:  cpu time    0.02: real time    0.02
    --------------------------------------------
      LOOP:  cpu time    0.39: real time    0.39

 eigenvalue-minimisations  :    18
 total energy-change (2. order) :-0.1302094E-01  (-0.1302094E-01)
 number of electron      10.0000005 magnetization 
 augmentation part        0.7915988 magnetization 

 Broyden mixing:
  rms(total) = 0.14426E+01    rms(broyden)= 0.14421E+01
  rms(prec ) = 0.24571E+01
  weight for this iteration     100.00

 Free energy of the ion-electron system (eV)
  ---------------------------------------------------
  alpha Z        PSCENC =         0.40002888
  Ewald energy   TEWEN  =      -107.64894697
  -1/2 Hartree   DENC   =      -386.13110807
  -exchange  EXHF       =         0.00000000
  -V(xc)+E(xc)   XCENC  =        36.69058987
  PAW double counting   =       455.07152327     -457.43959975
  entropy T*S    EENTRO =        -0.00000000
  eigenvalues    EBANDS =      -127.81290119
  atomic energy  EATOM  =       579.39041991
  ---------------------------------------------------
  free energy    TOTEN  =        -7.47999404 eV

  energy without entropy =       -7.47999404  energy(sigma->0) =       -7.47999404


--------------------------------------------------------------------------------------------------------




----------------------------------------- Iteration    1(   6)  ---------------------------------------


    POTLOK:  cpu time    0.66: real time    0.66
    SETDIJ:  cpu time    0.00: real time    0.00
    EDDIAG:  cpu time    0.06: real time    0.05
  RMM-DIIS:  cpu time    0.24: real time    0.24
    ORTHCH:  cpu time    0.00: real time    0.00
       DOS:  cpu time    0.00: real time    0.00
    CHARGE:  cpu time    0.06: real time    0.06
    MIXING:  cpu time    0.02: real time    0.02
    --------------------------------------------
      LOOP:  cpu time    1.04: real time    1.04

 eigenvalue-minimisations  :    20
 total energy-change (2. order) :-0.3210730E+02  (-0.2012233E+01)
 number of electron       9.9999984 magnetization 
 augmentation part       -0.0300653 magnetization 

 Broyden mixing:
  rms(total) = 0.37303E+01    rms(broyden)= 0.37285E+01
  rms(prec ) = 0.60447E+01
  weight for this iteration     100.00

 eigenvalues of (default mixing * dielectric matrix)
  average eigenvalue GAMMA=   0.2763
  0.2763

 Free energy of the ion-electron system (eV)
  ---------------------------------------------------
  alpha Z        PSCENC =         0.40002888
  Ewald energy   TEWEN  =      -107.64894697
  -1/2 Hartree   DENC   =      -421.37327822
  -exchange  EXHF       =         0.00000000
  -V(xc)+E(xc)   XCENC  =        38.39857973
  PAW double counting   =       521.69590678     -524.46184972
  entropy T*S    EENTRO =        -0.00000000
  eigenvalues    EBANDS =      -125.98815504
  atomic energy  EATOM  =       579.39041991
  ---------------------------------------------------
  free energy    TOTEN  =       -39.58729464 eV

  energy without entropy =      -39.58729464  energy(sigma->0) =      -39.58729464


--------------------------------------------------------------------------------------------------------




----------------------------------------- Iteration    1(   7)  ---------------------------------------


    POTLOK:  cpu time    0.67: real time    0.67
    SETDIJ:  cpu time    0.00: real time    0.00
    EDDIAG:  cpu time    0.05: real time    0.05
  RMM-DIIS:  cpu time    0.22: real time    0.22
    ORTHCH:  cpu time    0.00: real time    0.00
       DOS:  cpu time    0.00: real time    0.00
    CHARGE:  cpu time    0.07: real time    0.07
    MIXING:  cpu time    0.02: real time    0.02
    --------------------------------------------
      LOOP:  cpu time    1.04: real time    1.04

 eigenvalue-minimisations  :    19
 total energy-change (2. order) : 0.3855321E+02  (-0.1117848E+01)
 number of electron      10.0000002 magnetization 
 augmentation part        0.4107173 magnetization 

 Broyden mixing:
  rms(total) = 0.50798E+00    rms(broyden)= 0.50515E+00
  rms(prec ) = 0.70329E+00
  weight for this iteration     100.00

 eigenvalues of (default mixing * dielectric matrix)
  average eigenvalue GAMMA=   0.3142
  0.3142  0.3142

 Free energy of the ion-electron system (eV)
  ---------------------------------------------------
  alpha Z        PSCENC =         0.40002888
  Ewald energy   TEWEN  =      -107.64894697
  -1/2 Hartree   DENC   =      -397.78994120
  -exchange  EXHF       =         0.00000000
  -V(xc)+E(xc)   XCENC  =        37.33677373
  PAW double counting   =       481.31029893     -483.84745599
  entropy T*S    EENTRO =        -0.60481193
  eigenvalues    EBANDS =      -109.58044620
  atomic energy  EATOM  =       579.39041991
  ---------------------------------------------------
  free energy    TOTEN  =        -1.03408084 eV

  energy without entropy =       -0.42926890  energy(sigma->0) =       -0.73167487


--------------------------------------------------------------------------------------------------------




----------------------------------------- Iteration    1(   8)  ---------------------------------------


    POTLOK:  cpu time    0.67: real time    0.67
    SETDIJ:  cpu time    0.00: real time    0.00
    EDDIAG:  cpu time    0.06: real time    0.05
  RMM-DIIS:  cpu time    0.25: real time    0.25
    ORTHCH:  cpu time    0.00: real time    0.00
       DOS:  cpu time    0.00: real time    0.00
    CHARGE:  cpu time    0.06: real time    0.07
    MIXING:  cpu time    0.02: real time    0.02
    --------------------------------------------
      LOOP:  cpu time    1.07: real time    1.07

 eigenvalue-minimisations  :    22
 total energy-change (2. order) :-0.2521741E+00  (-0.5852262E-01)
 number of electron      10.0000004 magnetization 
 augmentation part        0.6642976 magnetization 

 Broyden mixing:
  rms(total) = 0.87206E+00    rms(broyden)= 0.87083E+00
  rms(prec ) = 0.16024E+01
  weight for this iteration     100.00

 eigenvalues of (default mixing * dielectric matrix)
  average eigenvalue GAMMA=   0.3379
  0.3337  0.3337  0.3463

 Free energy of the ion-electron system (eV)
  ---------------------------------------------------
  alpha Z        PSCENC =         0.40002888
  Ewald energy   TEWEN  =      -107.64894697
  -1/2 Hartree   DENC   =      -395.55632287
  -exchange  EXHF       =         0.00000000
  -V(xc)+E(xc)   XCENC  =        37.14014509
  PAW double counting   =       477.91638207     -480.40047698
  entropy T*S    EENTRO =        -0.20950698
  eigenvalues    EBANDS =      -112.31797707
  atomic energy  EATOM  =       579.39041991
  ---------------------------------------------------
  free energy    TOTEN  =        -1.28625493 eV

  energy without entropy =       -1.07674795  energy(sigma->0) =       -1.18150144


--------------------------------------------------------------------------------------------------------




----------------------------------------- Iteration    1(   9)  ---------------------------------------


    POTLOK:  cpu time    0.68: real time    0.68
    SETDIJ:  cpu time    0.00: real time    0.00
    EDDIAG:  cpu time    0.06: real time    0.05
  RMM-DIIS:  cpu time    0.22: real time    0.22
    ORTHCH:  cpu time    0.00: real time    0.00
       DOS:  cpu time    0.00: real time    0.00
    CHARGE:  cpu time    0.06: real time    0.06
    MIXING:  cpu time    0.03: real time    0.03
    --------------------------------------------
      LOOP:  cpu time    1.04: real time    1.05

 eigenvalue-minimisations  :    19
 total energy-change (2. order) :-0.3951063E+01  (-0.1021590E+00)
 number of electron      10.0000006 magnetization 
 augmentation part        0.7589435 magnetization 

 Broyden mixing:
  rms(total) = 0.13170E+01    rms(broyden)= 0.13168E+01
  rms(prec ) = 0.23031E+01
  weight for this iteration     100.00

 eigenvalues of (default mixing * dielectric matrix)
  average eigenvalue GAMMA=   1.6146
  3.1966  2.6203  0.3207  0.3207

 Free energy of the ion-electron system (eV)
  ---------------------------------------------------
  alpha Z        PSCENC =         0.40002888
  Ewald energy   TEWEN  =      -107.64894697
  -1/2 Hartree   DENC   =      -390.53110131
  -exchange  EXHF       =         0.00000000
  -V(xc)+E(xc)   XCENC  =        36.93831301
  PAW double counting   =       469.30677093     -471.74112292
  entropy T*S    EENTRO =        -0.00000000
  eigenvalues    EBANDS =      -121.35167976
  atomic energy  EATOM  =       579.39041991
  ---------------------------------------------------
  free energy    TOTEN  =        -5.23731824 eV

  energy without entropy =       -5.23731824  energy(sigma->0) =       -5.23731824


--------------------------------------------------------------------------------------------------------




----------------------------------------- Iteration    1(  10)  ---------------------------------------


    POTLOK:  cpu time    0.70: real time    0.70
    SETDIJ:  cpu time    0.00: real time    0.00
    EDDIAG:  cpu time    0.05: real time    0.05
  RMM-DIIS:  cpu time    0.25: real time    0.25
    ORTHCH:  cpu time    0.00: real time    0.00
       DOS:  cpu time    0.00: real time    0.00
    CHARGE:  cpu time    0.06: real time    0.06
    MIXING:  cpu time    0.03: real time    0.03
    --------------------------------------------
      LOOP:  cpu time    1.10: real time    1.10

 eigenvalue-minimisations  :    20
 total energy-change (2. order) :-0.4562875E+01  (-0.6280970E-01)
 number of electron      10.0000005 magnetization 
 augmentation part        0.7876105 magnetization 

 Broyden mixing:
  rms(total) = 0.14401E+01    rms(broyden)= 0.14401E+01
  rms(prec ) = 0.24907E+01
  weight for this iteration     100.00

 eigenvalues of (default mixing * dielectric matrix)
  average eigenvalue GAMMA=   1.3641
  4.0392  1.3766  0.3231  0.3231  0.7586

 Free energy of the ion-electron system (eV)
  ---------------------------------------------------
  alpha Z        PSCENC =         0.40002888
  Ewald energy   TEWEN  =      -107.64894697
  -1/2 Hartree   DENC   =      -388.45065537
  -exchange  EXHF       =         0.00000000
  -V(xc)+E(xc)   XCENC  =        37.00844976
  PAW double counting   =       472.85680795     -475.31695142
  entropy T*S    EENTRO =        -0.00000000
  eigenvalues    EBANDS =      -128.03934640
  atomic energy  EATOM  =       579.39041991
  ---------------------------------------------------
  free energy    TOTEN  =        -9.80019366 eV

  energy without entropy =       -9.80019366  energy(sigma->0) =       -9.80019366


--------------------------------------------------------------------------------------------------------




----------------------------------------- Iteration    1(  11)  ---------------------------------------


    POTLOK:  cpu time    0.68: real time    0.68
    SETDIJ:  cpu time    0.00: real time    0.00
    EDDIAG:  cpu time    0.05: real time    0.05
  RMM-DIIS:  cpu time    0.26: real time    0.26
    ORTHCH:  cpu time    0.00: real time    0.00
       DOS:  cpu time    0.00: real time    0.00
    CHARGE:  cpu time    0.06: real time    0.06
    MIXING:  cpu time    0.03: real time    0.03
    --------------------------------------------
      LOOP:  cpu time    1.08: real time    1.08

 eigenvalue-minimisations  :    22
 total energy-change (2. order) :-0.6902703E+01  (-0.8762710E-01)
 number of electron      10.0000004 magnetization 
 augmentation part        0.8193468 magnetization 

 Broyden mixing:
  rms(total) = 0.15803E+01    rms(broyden)= 0.15802E+01
  rms(prec ) = 0.27247E+01
  weight for this iteration     100.00

 eigenvalues of (default mixing * dielectric matrix)
  average eigenvalue GAMMA=   1.7496
  3.3288  3.3288  2.3901  0.3224  0.3224  0.8050

 Free energy of the ion-electron system (eV)
  ---------------------------------------------------
  alpha Z        PSCENC =         0.40002888
  Ewald energy   TEWEN  =      -107.64894697
  -1/2 Hartree   DENC   =      -386.63726461
  -exchange  EXHF       =         0.00000000
  -V(xc)+E(xc)   XCENC  =        37.19246374
  PAW double counting   =       483.12418106     -485.63659353
  entropy T*S    EENTRO =        -0.00000000
  eigenvalues    EBANDS =      -136.88718542
  atomic energy  EATOM  =       579.39041991
  ---------------------------------------------------
  free energy    TOTEN  =       -16.70289694 eV

  energy without entropy =      -16.70289694  energy(sigma->0) =      -16.70289694


--------------------------------------------------------------------------------------------------------




----------------------------------------- Iteration    1(  12)  ---------------------------------------


    POTLOK:  cpu time    0.70: real time    0.70
    SETDIJ:  cpu time    0.00: real time    0.00
    EDDIAG:  cpu time    0.06: real time    0.06
  RMM-DIIS:  cpu time    0.23: real time    0.23
    ORTHCH:  cpu time    0.00: real time    0.00
       DOS:  cpu time    0.00: real time    0.00
    CHARGE:  cpu time    0.06: real time    0.06
    MIXING:  cpu time    0.03: real time    0.03
    --------------------------------------------
      LOOP:  cpu time    1.08: real time    1.08

 eigenvalue-minimisations  :    20
 total energy-change (2. order) : 0.1291732E+02  (-0.1856510E+00)
 number of electron      10.0000005 magnetization 
 augmentation part        0.7749555 magnetization 

 Broyden mixing:
  rms(total) = 0.13721E+01    rms(broyden)= 0.13721E+01
  rms(prec ) = 0.23292E+01
  weight for this iteration     100.00

 eigenvalues of (default mixing * dielectric matrix)
  average eigenvalue GAMMA=   1.5689
  3.5200  3.5200  2.2735  0.8219  0.3225  0.3225  0.2017

 Free energy of the ion-electron system (eV)
  ---------------------------------------------------
  alpha Z        PSCENC =         0.40002888
  Ewald energy   TEWEN  =      -107.64894697
  -1/2 Hartree   DENC   =      -390.96782567
  -exchange  EXHF       =         0.00000000
  -V(xc)+E(xc)   XCENC  =        36.89061965
  PAW double counting   =       463.81559271     -466.22160500
  entropy T*S    EENTRO =        -0.00000000
  eigenvalues    EBANDS =      -119.44386232
  atomic energy  EATOM  =       579.39041991
  ---------------------------------------------------
  free energy    TOTEN  =        -3.78557879 eV

  energy without entropy =       -3.78557879  energy(sigma->0) =       -3.78557879


--------------------------------------------------------------------------------------------------------




----------------------------------------- Iteration    1(  13)  ---------------------------------------


    POTLOK:  cpu time    0.66: real time    0.66
    SETDIJ:  cpu time    0.00: real time    0.00
    EDDIAG:  cpu time    0.05: real time    0.05
  RMM-DIIS:  cpu time    0.26: real time    0.27
    ORTHCH:  cpu time    0.00: real time    0.00
       DOS:  cpu time    0.00: real time    0.00
    CHARGE:  cpu time    0.06: real time    0.06
    MIXING:  cpu time    0.04: real time    0.03
    --------------------------------------------
      LOOP:  cpu time    1.08: real time    1.08

 eigenvalue-minimisations  :    25
 total energy-change (2. order) : 0.1410367E+01  (-0.1831164E-01)
 number of electron      10.0000006 magnetization 
 augmentation part        0.7572055 magnetization 

 Broyden mixing:
  rms(total) = 0.13106E+01    rms(broyden)= 0.13106E+01
  rms(prec ) = 0.22421E+01
  weight for this iteration     100.00

 eigenvalues of (default mixing * dielectric matrix)
  average eigenvalue GAMMA=   1.8103
  4.4169  4.4169  2.2379  0.3224  0.3224  0.8643  0.9510  0.9510

 Free energy of the ion-electron system (eV)
  ---------------------------------------------------
  alpha Z        PSCENC =         0.40002888
  Ewald energy   TEWEN  =      -107.64894697
  -1/2 Hartree   DENC   =      -392.19400927
  -exchange  EXHF       =         0.00000000
  -V(xc)+E(xc)   XCENC  =        36.90659549
  PAW double counting   =       465.41178686     -467.81956924
  entropy T*S    EENTRO =        -0.00069279
  eigenvalues    EBANDS =      -116.82082448
  atomic energy  EATOM  =       579.39041991
  ---------------------------------------------------
  free energy    TOTEN  =        -2.37521160 eV

  energy without entropy =       -2.37451882  energy(sigma->0) =       -2.37486521


--------------------------------------------------------------------------------------------------------




----------------------------------------- Iteration    1(  14)  ---------------------------------------


    POTLOK:  cpu time    0.69: real time    0.69
    SETDIJ:  cpu time    0.00: real time    0.00
    EDDIAG:  cpu time    0.06: real time    0.06
  RMM-DIIS:  cpu time    0.23: real time    0.23
    ORTHCH:  cpu time    0.00: real time    0.00
       DOS:  cpu time    0.00: real time    0.00
    CHARGE:  cpu time    0.06: real time    0.07
    MIXING:  cpu time    0.04: real time    0.03
    --------------------------------------------
      LOOP:  cpu time    1.09: real time    1.09

 eigenvalue-minimisations  :    20
 total energy-change (2. order) :-0.6144891E+01  (-0.1397344E+00)
 number of electron       9.9999986 magnetization 
 augmentation part       -0.0890817 magnetization 

 Broyden mixing:
  rms(total) = 0.31059E+01    rms(broyden)= 0.31036E+01
  rms(prec ) = 0.53314E+01
  weight for this iteration     100.00

 eigenvalues of (default mixing * dielectric matrix)
  average eigenvalue GAMMA=   1.5527
  3.8920  3.8920  2.0453  1.2387  1.2387  0.3224  0.3224  0.6455  0.3770

 Free energy of the ion-electron system (eV)
  ---------------------------------------------------
  alpha Z        PSCENC =         0.40002888
  Ewald energy   TEWEN  =      -107.64894697
  -1/2 Hartree   DENC   =      -395.32288113
  -exchange  EXHF       =         0.00000000
  -V(xc)+E(xc)   XCENC  =        36.82373009
  PAW double counting   =       459.03875315     -461.40731603
  entropy T*S    EENTRO =        -0.00000000
  eigenvalues    EBANDS =      -119.79389088
  atomic energy  EATOM  =       579.39041991
  ---------------------------------------------------
  free energy    TOTEN  =        -8.52010298 eV

  energy without entropy =       -8.52010298  energy(sigma->0) =       -8.52010298


--------------------------------------------------------------------------------------------------------




----------------------------------------- Iteration    1(  15)  ---------------------------------------


    POTLOK:  cpu time    0.72: real time    0.72
    SETDIJ:  cpu time    0.00: real time    0.00
    EDDIAG:  cpu time    0.06: real time    0.06
  RMM-DIIS:  cpu time    0.23: real time    0.23
    ORTHCH:  cpu time    0.00: real time    0.00
       DOS:  cpu time    0.00: real time    0.00
    CHARGE:  cpu time    0.06: real time    0.06
    MIXING:  cpu time    0.04: real time    0.04
    --------------------------------------------
      LOOP:  cpu time    1.11: real time    1.11

 eigenvalue-minimisations  :    19
 total energy-change (2. order) : 0.3902056E+01  (-0.1709894E+00)
 number of electron      10.0000006 magnetization 
 augmentation part        0.7866236 magnetization 

 Broyden mixing:
  rms(total) = 0.14510E+01    rms(broyden)= 0.14476E+01
  rms(prec ) = 0.24017E+01
  weight for this iteration     100.00

 eigenvalues of (default mixing * dielectric matrix)
  average eigenvalue GAMMA=   1.5142
  3.5928  3.5928  2.4672  1.5254  1.5254  0.3224  0.3224  0.6820  0.5559  0.5559

 Free energy of the ion-electron system (eV)
  ---------------------------------------------------
  alpha Z        PSCENC =         0.40002888
  Ewald energy   TEWEN  =      -107.64894697
  -1/2 Hartree   DENC   =      -386.40435186
  -exchange  EXHF       =         0.00000000
  -V(xc)+E(xc)   XCENC  =        36.57646947
  PAW double counting   =       459.89875431     -462.16698527
  entropy T*S    EENTRO =        -0.00000000
  eigenvalues    EBANDS =      -124.66343554
  atomic energy  EATOM  =       579.39041991
  ---------------------------------------------------
  free energy    TOTEN  =        -4.61804706 eV

  energy without entropy =       -4.61804706  energy(sigma->0) =       -4.61804706


--------------------------------------------------------------------------------------------------------




----------------------------------------- Iteration    1(  16)  ---------------------------------------


    POTLOK:  cpu time    0.72: real time    0.72
    SETDIJ:  cpu time    0.00: real time    0.00
    EDDIAG:  cpu time    0.05: real time    0.05
  RMM-DIIS:  cpu time    0.24: real time    0.24
    ORTHCH:  cpu time    0.00: real time    0.00
       DOS:  cpu time    0.00: real time    0.00
    CHARGE:  cpu time    0.06: real time    0.06
    MIXING:  cpu time    0.04: real time    0.04
    --------------------------------------------
      LOOP:  cpu time    1.11: real time    1.11

 eigenvalue-minimisations  :    22
 total energy-change (2. order) : 0.1336699E+01  (-0.2421988E-01)
 number of electron      10.0000006 magnetization 
 augmentation part        0.7678501 magnetization 

 Broyden mixing:
  rms(total) = 0.13512E+01    rms(broyden)= 0.13511E+01
  rms(prec ) = 0.22967E+01
  weight for this iteration     100.00

 eigenvalues of (default mixing * dielectric matrix)
  average eigenvalue GAMMA=   1.4670
  3.7073  3.7073  2.6390  1.4655  1.4655  0.3224  0.3224  0.6079  0.6079  0.6459
  0.6459

 Free energy of the ion-electron system (eV)
  ---------------------------------------------------
  alpha Z        PSCENC =         0.40002888
  Ewald energy   TEWEN  =      -107.64894697
  -1/2 Hartree   DENC   =      -391.32085289
  -exchange  EXHF       =         0.00000000
  -V(xc)+E(xc)   XCENC  =        36.86575081
  PAW double counting   =       474.64524146     -477.02662592
  entropy T*S    EENTRO =        -0.00000018
  eigenvalues    EBANDS =      -118.58636290
  atomic energy  EATOM  =       579.39041991
  ---------------------------------------------------
  free energy    TOTEN  =        -3.28134780 eV

  energy without entropy =       -3.28134762  energy(sigma->0) =       -3.28134771


--------------------------------------------------------------------------------------------------------




----------------------------------------- Iteration    1(  17)  ---------------------------------------


    POTLOK:  cpu time    0.70: real time    0.70
    SETDIJ:  cpu time    0.00: real time    0.00
    EDDIAG:  cpu time    0.05: real time    0.06
  RMM-DIIS:  cpu time    0.24: real time    0.24
    ORTHCH:  cpu time    0.00: real time    0.00
       DOS:  cpu time    0.00: real time    0.00
    CHARGE:  cpu time    0.06: real time    0.06
    MIXING:  cpu time    0.04: real time    0.04
    --------------------------------------------
      LOOP:  cpu time    1.10: real time    1.11

 eigenvalue-minimisations  :    19
 total energy-change (2. order) : 0.1760638E+01  (-0.1017629E-01)
 number of electron      10.0000005 magnetization 
 augmentation part        0.7394588 magnetization 

 Broyden mixing:
  rms(total) = 0.12219E+01    rms(broyden)= 0.12219E+01
  rms(prec ) = 0.20815E+01
  weight for this iteration     100.00

 eigenvalues of (default mixing * dielectric matrix)
  average eigenvalue GAMMA=   1.3575
  3.6780  3.6780  2.6369  1.4399  1.4399  0.3224  0.3224  0.6653  0.6653  0.6269
  0.6269  0.1885

 Free energy of the ion-electron system (eV)
  ---------------------------------------------------
  alpha Z        PSCENC =         0.40002888
  Ewald energy   TEWEN  =      -107.64894697
  -1/2 Hartree   DENC   =      -392.77494524
  -exchange  EXHF       =         0.00000000
  -V(xc)+E(xc)   XCENC  =        36.88683317
  PAW double counting   =       474.12669423     -476.50730830
  entropy T*S    EENTRO =        -0.07218887
  eigenvalues    EBANDS =      -115.32129701
  atomic energy  EATOM  =       579.39041991
  ---------------------------------------------------
  free energy    TOTEN  =        -1.52071020 eV

  energy without entropy =       -1.44852133  energy(sigma->0) =       -1.48461576


--------------------------------------------------------------------------------------------------------




----------------------------------------- Iteration    1(  18)  ---------------------------------------


    POTLOK:  cpu time    0.72: real time    0.72
    SETDIJ:  cpu time    0.00: real time    0.00
    EDDIAG:  cpu time    0.06: real time    0.06
  RMM-DIIS:  cpu time    0.32: real time    0.32
    ORTHCH:  cpu time    0.00: real time    0.00
       DOS:  cpu time    0.00: real time    0.00
    CHARGE:  cpu time    0.07: real time    0.07
    MIXING:  cpu time    0.05: real time    0.05
    --------------------------------------------
      LOOP:  cpu time    1.22: real time    1.22

 eigenvalue-minimisations  :    26
 total energy-change (2. order) : 0.3890600E+00  (-0.1664211E-02)
 number of electron      10.0000000 magnetization 
 augmentation part        0.6443549 magnetization 

 Broyden mixing:
  rms(total) = 0.74950E+00    rms(broyden)= 0.74935E+00
  rms(prec ) = 0.12737E+01
  weight for this iteration     100.00

 eigenvalues of (default mixing * dielectric matrix)
  average eigenvalue GAMMA=   1.3531
  3.7919  3.7919  2.6317  1.6100  1.6100  0.7150  0.7150  0.3224  0.3224  0.7349
  0.5764  0.5764  0.1925

 Free energy of the ion-electron system (eV)
  ---------------------------------------------------
  alpha Z        PSCENC =         0.40002888
  Ewald energy   TEWEN  =      -107.64894697
  -1/2 Hartree   DENC   =      -392.85917574
  -exchange  EXHF       =         0.00000000
  -V(xc)+E(xc)   XCENC  =        36.86397308
  PAW double counting   =       472.88392354     -475.25674517
  entropy T*S    EENTRO =        -0.33930107
  eigenvalues    EBANDS =      -114.56582670
  atomic energy  EATOM  =       579.39041991
  ---------------------------------------------------
  free energy    TOTEN  =        -1.13165024 eV

  energy without entropy =       -0.79234917  energy(sigma->0) =       -0.96199970


--------------------------------------------------------------------------------------------------------




----------------------------------------- Iteration    1(  19)  ---------------------------------------


    POTLOK:  cpu time    0.72: real time    0.73
    SETDIJ:  cpu time    0.00: real time    0.00
    EDDIAG:  cpu time    0.06: real time    0.06
  RMM-DIIS:  cpu time    0.22: real time    0.22
    ORTHCH:  cpu time    0.00: real time    0.00
       DOS:  cpu time    0.00: real time    0.00
    CHARGE:  cpu time    0.06: real time    0.06
    MIXING:  cpu time    0.04: real time    0.04
    --------------------------------------------
      LOOP:  cpu time    1.12: real time    1.12

 eigenvalue-minimisations  :    19
 total energy-change (2. order) :-0.6694155E+00  (-0.1392680E-02)
 number of electron      10.0000006 magnetization 
 augmentation part        0.7516069 magnetization 

 Broyden mixing:
  rms(total) = 0.12862E+01    rms(broyden)= 0.12862E+01
  rms(prec ) = 0.21922E+01
  weight for this iteration     100.00

 eigenvalues of (default mixing * dielectric matrix)
  average eigenvalue GAMMA=   1.3240
  3.7526  3.7526  2.6278  1.5407  1.5407  0.6251  0.6251  0.7488  0.7488  0.8118
  0.3224  0.3224  0.5586  0.5586

 Free energy of the ion-electron system (eV)
  ---------------------------------------------------
  alpha Z        PSCENC =         0.40002888
  Ewald energy   TEWEN  =      -107.64894697
  -1/2 Hartree   DENC   =      -392.14165354
  -exchange  EXHF       =         0.00000000
  -V(xc)+E(xc)   XCENC  =        36.84726076
  PAW double counting   =       473.08321011     -475.45398701
  entropy T*S    EENTRO =        -0.01908177
  eigenvalues    EBANDS =      -116.25831610
  atomic energy  EATOM  =       579.39041991
  ---------------------------------------------------
  free energy    TOTEN  =        -1.80106572 eV

  energy without entropy =       -1.78198395  energy(sigma->0) =       -1.79152484


--------------------------------------------------------------------------------------------------------




----------------------------------------- Iteration    1(  20)  ---------------------------------------


    POTLOK:  cpu time    0.69: real time    0.69
    SETDIJ:  cpu time    0.00: real time    0.00
    EDDIAG:  cpu time    0.05: real time    0.05
  RMM-DIIS:  cpu time    0.22: real time    0.21
    ORTHCH:  cpu time    0.00: real time    0.00
       DOS:  cpu time    0.00: real time    0.00
    CHARGE:  cpu time    0.06: real time    0.06
    MIXING:  cpu time    0.06: real time    0.06
    --------------------------------------------
      LOOP:  cpu time    1.08: real time    1.09

 eigenvalue-minimisations  :    19
 total energy-change (2. order) : 0.5250728E+00  (-0.4649366E-03)
 number of electron      10.0000004 magnetization 
 augmentation part        0.7015883 magnetization 

 Broyden mixing:
  rms(total) = 0.10359E+01    rms(broyden)= 0.10359E+01
  rms(prec ) = 0.17634E+01
  weight for this iteration     100.00

 eigenvalues of (default mixing * dielectric matrix)
  average eigenvalue GAMMA=   1.2694
  3.7760  3.7760  2.6304  1.5277  1.5277  0.7381  0.7381  0.7413  0.7413  0.8052
  0.3224  0.3224  0.5514  0.5514  0.2922

 Free energy of the ion-electron system (eV)
  ---------------------------------------------------
  alpha Z        PSCENC =         0.40002888
  Ewald energy   TEWEN  =      -107.64894697
  -1/2 Hartree   DENC   =      -392.61167457
  -exchange  EXHF       =         0.00000000
  -V(xc)+E(xc)   XCENC  =        36.85620471
  PAW double counting   =       472.78934904     -475.16121671
  entropy T*S    EENTRO =        -0.19455998
  eigenvalues    EBANDS =      -115.09559723
  atomic energy  EATOM  =       579.39041991
  ---------------------------------------------------
  free energy    TOTEN  =        -1.27599292 eV

  energy without entropy =       -1.08143294  energy(sigma->0) =       -1.17871293


--------------------------------------------------------------------------------------------------------




----------------------------------------- Iteration    1(  21)  ---------------------------------------


    POTLOK:  cpu time    0.72: real time    0.72
    SETDIJ:  cpu time    0.00: real time    0.00
    EDDIAG:  cpu time    0.06: real time    0.06
  RMM-DIIS:  cpu time    0.26: real time    0.27
    ORTHCH:  cpu time    0.00: real time    0.00
       DOS:  cpu time    0.00: real time    0.00
    CHARGE:  cpu time    0.07: real time    0.07
    MIXING:  cpu time    0.06: real time    0.05
    --------------------------------------------
      LOOP:  cpu time    1.18: real time    1.18

 eigenvalue-minimisations  :    21
 total energy-change (2. order) : 0.1679092E+00  (-0.2539659E-03)
 number of electron      10.0000001 magnetization 
 augmentation part        0.6272722 magnetization 

 Broyden mixing:
  rms(total) = 0.65953E+00    rms(broyden)= 0.65943E+00
  rms(prec ) = 0.11214E+01
  weight for this iteration     100.00

 eigenvalues of (default mixing * dielectric matrix)
  average eigenvalue GAMMA=   1.2966
  3.7753  3.7753  2.6748  1.7079  1.7079  0.8797  0.8661  0.8661  0.6123  0.6123
  0.3224  0.3224  0.7598  0.7598  0.5521  0.5521

 Free energy of the ion-electron system (eV)
  ---------------------------------------------------
  alpha Z        PSCENC =         0.40002888
  Ewald energy   TEWEN  =      -107.64894697
  -1/2 Hartree   DENC   =      -392.74308713
  -exchange  EXHF       =         0.00000000
  -V(xc)+E(xc)   XCENC  =        36.84915305
  PAW double counting   =       472.55698641     -474.92736391
  entropy T*S    EENTRO =        -0.37775983
  eigenvalues    EBANDS =      -114.60751417
  atomic energy  EATOM  =       579.39041991
  ---------------------------------------------------
  free energy    TOTEN  =        -1.10808375 eV

  energy without entropy =       -0.73032393  energy(sigma->0) =       -0.91920384


--------------------------------------------------------------------------------------------------------




----------------------------------------- Iteration    1(  22)  ---------------------------------------


    POTLOK:  cpu time    0.73: real time    0.73
    SETDIJ:  cpu time    0.00: real time    0.00
    EDDIAG:  cpu time    0.06: real time    0.06
  RMM-DIIS:  cpu time    0.24: real time    0.24
    ORTHCH:  cpu time    0.00: real time    0.00
       DOS:  cpu time    0.00: real time    0.00
    CHARGE:  cpu time    0.07: real time    0.07
    MIXING:  cpu time    0.06: real time    0.06
    --------------------------------------------
      LOOP:  cpu time    1.16: real time    1.17

 eigenvalue-minimisations  :    18
 total energy-change (2. order) :-0.1987328E+00  (-0.9263451E-04)
 number of electron      10.0000004 magnetization 
 augmentation part        0.7050163 magnetization 

 Broyden mixing:
  rms(total) = 0.10538E+01    rms(broyden)= 0.10538E+01
  rms(prec ) = 0.17981E+01
  weight for this iteration     100.00

 eigenvalues of (default mixing * dielectric matrix)
  average eigenvalue GAMMA=   1.3983
  3.8838  3.8838  2.4633  2.4633  2.5298  1.0573  1.0573  1.0846  1.0846  0.5561
  0.5561  0.3224  0.3224  0.8358  0.5633  0.5633  0.5447

 Free energy of the ion-electron system (eV)
  ---------------------------------------------------
  alpha Z        PSCENC =         0.40002888
  Ewald energy   TEWEN  =      -107.64894697
  -1/2 Hartree   DENC   =      -392.64561601
  -exchange  EXHF       =         0.00000000
  -V(xc)+E(xc)   XCENC  =        36.85356382
  PAW double counting   =       473.30489260     -475.67788269
  entropy T*S    EENTRO =        -0.18084857
  eigenvalues    EBANDS =      -115.10242753
  atomic energy  EATOM  =       579.39041991
  ---------------------------------------------------
  free energy    TOTEN  =        -1.30681655 eV

  energy without entropy =       -1.12596798  energy(sigma->0) =       -1.21639227


--------------------------------------------------------------------------------------------------------




----------------------------------------- Iteration    1(  23)  ---------------------------------------


    POTLOK:  cpu time    0.71: real time    0.71
    SETDIJ:  cpu time    0.00: real time    0.00
    EDDIAG:  cpu time    0.05: real time    0.05
  RMM-DIIS:  cpu time    0.20: real time    0.21
    ORTHCH:  cpu time    0.00: real time    0.00
       DOS:  cpu time    0.00: real time    0.00
    CHARGE:  cpu time    0.06: real time    0.06
    MIXING:  cpu time    0.05: real time    0.05
    --------------------------------------------
      LOOP:  cpu time    1.09: real time    1.09

 eigenvalue-minimisations  :    18
 total energy-change (2. order) : 0.1073122E+00  (-0.6895015E-04)
 number of electron      10.0000003 magnetization 
 augmentation part        0.6760014 magnetization 

 Broyden mixing:
  rms(total) = 0.90555E+00    rms(broyden)= 0.90554E+00
  rms(prec ) = 0.15417E+01
  weight for this iteration     100.00

 eigenvalues of (default mixing * dielectric matrix)
  average eigenvalue GAMMA=   1.4026
  3.8878  3.8878  3.0631  3.0631  2.5555  1.2016  1.2016  0.5727  0.5727  0.3224
  0.3224  0.6661  0.6661  0.7162  0.7162  0.6428  0.5946  0.5946

 Free energy of the ion-electron system (eV)
  ---------------------------------------------------
  alpha Z        PSCENC =         0.40002888
  Ewald energy   TEWEN  =      -107.64894697
  -1/2 Hartree   DENC   =      -392.44810563
  -exchange  EXHF       =         0.00000000
  -V(xc)+E(xc)   XCENC  =        36.83368138
  PAW double counting   =       472.26748429     -474.63269191
  entropy T*S    EENTRO =        -0.26575835
  eigenvalues    EBANDS =      -115.09561595
  atomic energy  EATOM  =       579.39041991
  ---------------------------------------------------
  free energy    TOTEN  =        -1.19950435 eV

  energy without entropy =       -0.93374600  energy(sigma->0) =       -1.06662517


--------------------------------------------------------------------------------------------------------




----------------------------------------- Iteration    1(  24)  ---------------------------------------


    POTLOK:  cpu time    0.72: real time    0.72
    SETDIJ:  cpu time    0.00: real time    0.00
    EDDIAG:  cpu time    0.05: real time    0.05
  RMM-DIIS:  cpu time    0.24: real time    0.24
    ORTHCH:  cpu time    0.00: real time    0.00
       DOS:  cpu time    0.00: real time    0.00
    CHARGE:  cpu time    0.07: real time    0.07
    MIXING:  cpu time    0.06: real time    0.06
    --------------------------------------------
      LOOP:  cpu time    1.15: real time    1.15

 eigenvalue-minimisations  :    19
 total energy-change (2. order) : 0.1469186E+00  (-0.7225338E-03)
 number of electron       9.9999996 magnetization 
 augmentation part        0.4361854 magnetization 

 Broyden mixing:
  rms(total) = 0.32221E+00    rms(broyden)= 0.32041E+00
  rms(prec ) = 0.54820E+00
  weight for this iteration     100.00

 eigenvalues of (default mixing * dielectric matrix)
  average eigenvalue GAMMA=   1.3342
  3.8953  3.8953  3.0628  3.0628  2.4855  1.1865  1.1865  0.5746  0.5746  0.8158
  0.8158  0.3224  0.3224  0.6539  0.6539  0.5916  0.5916  0.5012  0.1577

 Free energy of the ion-electron system (eV)
  ---------------------------------------------------
  alpha Z        PSCENC =         0.40002888
  Ewald energy   TEWEN  =      -107.64894697
  -1/2 Hartree   DENC   =      -392.83823519
  -exchange  EXHF       =         0.00000000
  -V(xc)+E(xc)   XCENC  =        36.83273484
  PAW double counting   =       472.43783858     -474.80178421
  entropy T*S    EENTRO =        -0.62864166
  eigenvalues    EBANDS =      -114.19599987
  atomic energy  EATOM  =       579.39041991
  ---------------------------------------------------
  free energy    TOTEN  =        -1.05258570 eV

  energy without entropy =       -0.42394403  energy(sigma->0) =       -0.73826487


--------------------------------------------------------------------------------------------------------




----------------------------------------- Iteration    1(  25)  ---------------------------------------


    POTLOK:  cpu time    0.72: real time    0.72
    SETDIJ:  cpu time    0.00: real time    0.00
    EDDIAG:  cpu time    0.05: real time    0.05
  RMM-DIIS:  cpu time    0.23: real time    0.23
    ORTHCH:  cpu time    0.00: real time    0.00
       DOS:  cpu time    0.00: real time    0.00
    CHARGE:  cpu time    0.07: real time    0.07
    MIXING:  cpu time    0.06: real time    0.06
    --------------------------------------------
      LOOP:  cpu time    1.14: real time    1.14

 eigenvalue-minimisations  :    19
 total energy-change (2. order) :-0.5452763E+00  (-0.1988027E-02)
 number of electron      10.0000006 magnetization 
 augmentation part        0.7423920 magnetization 

 Broyden mixing:
  rms(total) = 0.12396E+01    rms(broyden)= 0.12391E+01
  rms(prec ) = 0.21134E+01
  weight for this iteration     100.00

 eigenvalues of (default mixing * dielectric matrix)
  average eigenvalue GAMMA=   1.3578
  3.8659  3.8659  2.8759  2.8759  2.5425  1.5284  1.5284  0.5660  0.5660  0.8593
  0.8593  0.8637  0.8637  0.3224  0.3224  0.5634  0.5634  0.5733  0.5733  0.5763

 Free energy of the ion-electron system (eV)
  ---------------------------------------------------
  alpha Z        PSCENC =         0.40002888
  Ewald energy   TEWEN  =      -107.64894697
  -1/2 Hartree   DENC   =      -391.94780032
  -exchange  EXHF       =         0.00000000
  -V(xc)+E(xc)   XCENC  =        36.81250411
  PAW double counting   =       473.35100718     -475.70786620
  entropy T*S    EENTRO =        -0.05540671
  eigenvalues    EBANDS =      -116.19180193
  atomic energy  EATOM  =       579.39041991
  ---------------------------------------------------
  free energy    TOTEN  =        -1.59786204 eV

  energy without entropy =       -1.54245533  energy(sigma->0) =       -1.57015869


--------------------------------------------------------------------------------------------------------




----------------------------------------- Iteration    1(  26)  ---------------------------------------


    POTLOK:  cpu time    0.71: real time    0.71
    SETDIJ:  cpu time    0.00: real time    0.00
    EDDIAG:  cpu time    0.05: real time    0.05
  RMM-DIIS:  cpu time    0.21: real time    0.21
    ORTHCH:  cpu time    0.00: real time    0.00
       DOS:  cpu time    0.00: real time    0.00
    CHARGE:  cpu time    0.06: real time    0.06
    MIXING:  cpu time    0.06: real time    0.06
    --------------------------------------------
      LOOP:  cpu time    1.10: real time    1.10

 eigenvalue-minimisations  :    19
 total energy-change (2. order) : 0.4014889E+00  (-0.4126657E-02)
 number of electron       9.9999994 magnetization 
 augmentation part        0.2714056 magnetization 

 Broyden mixing:
  rms(total) = 0.11697E+01    rms(broyden)= 0.11682E+01
  rms(prec ) = 0.19971E+01
  weight for this iteration     100.00

 eigenvalues of (default mixing * dielectric matrix)
  average eigenvalue GAMMA=   1.3077
  3.8814  3.8814  2.6673  2.6673  2.4003  1.7785  1.7785  1.0416  0.8631  0.8347
  0.8347  0.5669  0.5669  0.3224  0.3224  0.5980  0.5980  0.5758  0.5758  0.5093
  0.1982

 Free energy of the ion-electron system (eV)
  ---------------------------------------------------
  alpha Z        PSCENC =         0.40002888
  Ewald energy   TEWEN  =      -107.64894697
  -1/2 Hartree   DENC   =      -392.84318259
  -exchange  EXHF       =         0.00000000
  -V(xc)+E(xc)   XCENC  =        36.81948539
  PAW double counting   =       472.59617960     -474.95064675
  entropy T*S    EENTRO =        -0.65700568
  eigenvalues    EBANDS =      -114.30270492
  atomic energy  EATOM  =       579.39041991
  ---------------------------------------------------
  free energy    TOTEN  =        -1.19637314 eV

  energy without entropy =       -0.53936745  energy(sigma->0) =       -0.86787029


--------------------------------------------------------------------------------------------------------




----------------------------------------- Iteration    1(  27)  ---------------------------------------


    POTLOK:  cpu time    0.70: real time    0.70
    SETDIJ:  cpu time    0.00: real time    0.00
    EDDIAG:  cpu time    0.05: real time    0.05
  RMM-DIIS:  cpu time    0.24: real time    0.23
    ORTHCH:  cpu time    0.00: real time    0.00
       DOS:  cpu time    0.00: real time    0.00
    CHARGE:  cpu time    0.07: real time    0.07
    MIXING:  cpu time    0.08: real time    0.08
    --------------------------------------------
      LOOP:  cpu time    1.13: real time    1.13

 eigenvalue-minimisations  :    19
 total energy-change (2. order) :-0.2014423E+00  (-0.2204877E-02)
 number of electron      10.0000005 magnetization 
 augmentation part        0.7217414 magnetization 

 Broyden mixing:
  rms(total) = 0.11388E+01    rms(broyden)= 0.11377E+01
  rms(prec ) = 0.19449E+01
  weight for this iteration     100.00

 eigenvalues of (default mixing * dielectric matrix)
  average eigenvalue GAMMA=   1.2604
  3.8793  3.8793  2.6913  2.6913  2.3897  1.7638  1.7638  1.0531  0.8608  0.8330
  0.8330  0.1723  0.5671  0.5671  0.3224  0.3224  0.6054  0.6054  0.5768  0.5768
  0.4990  0.2757

 Free energy of the ion-electron system (eV)
  ---------------------------------------------------
  alpha Z        PSCENC =         0.40002888
  Ewald energy   TEWEN  =      -107.64894697
  -1/2 Hartree   DENC   =      -392.51330881
  -exchange  EXHF       =         0.00000000
  -V(xc)+E(xc)   XCENC  =        36.85289201
  PAW double counting   =       475.16283320     -477.52350296
  entropy T*S    EENTRO =        -0.12473178
  eigenvalues    EBANDS =      -115.39349891
  atomic energy  EATOM  =       579.39041991
  ---------------------------------------------------
  free energy    TOTEN  =        -1.39781542 eV

  energy without entropy =       -1.27308364  energy(sigma->0) =       -1.33544953


--------------------------------------------------------------------------------------------------------




----------------------------------------- Iteration    1(  28)  ---------------------------------------


    POTLOK:  cpu time    0.72: real time    0.71
    SETDIJ:  cpu time    0.00: real time    0.00
    EDDIAG:  cpu time    0.06: real time    0.06
  RMM-DIIS:  cpu time    0.23: real time    0.23
    ORTHCH:  cpu time    0.00: real time    0.00
       DOS:  cpu time    0.00: real time    0.00
    CHARGE:  cpu time    0.06: real time    0.07
    MIXING:  cpu time    0.08: real time    0.08
    --------------------------------------------
      LOOP:  cpu time    1.15: real time    1.15

 eigenvalue-minimisations  :    19
 total energy-change (2. order) : 0.3332413E+00  (-0.7943440E-03)
 number of electron       9.9999998 magnetization 
 augmentation part        0.4195852 magnetization 

 Broyden mixing:
  rms(total) = 0.40823E+00    rms(broyden)= 0.40701E+00
  rms(prec ) = 0.69677E+00
  weight for this iteration     100.00

 eigenvalues of (default mixing * dielectric matrix)
  average eigenvalue GAMMA=   1.2730
  3.8821  3.8821  2.6446  2.6446  2.3328  1.6092  1.6092  1.0064  1.0064  1.1275
  0.5702  0.5702  0.7939  0.3224  0.3224  0.7093  0.7093  0.6840  0.6840  0.5972
  0.5972  0.4870  0.4870

 Free energy of the ion-electron system (eV)
  ---------------------------------------------------
  alpha Z        PSCENC =         0.40002888
  Ewald energy   TEWEN  =      -107.64894697
  -1/2 Hartree   DENC   =      -392.68930513
  -exchange  EXHF       =         0.00000000
  -V(xc)+E(xc)   XCENC  =        36.81720319
  PAW double counting   =       473.08034490     -475.43062902
  entropy T*S    EENTRO =        -0.63967177
  eigenvalues    EBANDS =      -114.34401808
  atomic energy  EATOM  =       579.39041991
  ---------------------------------------------------
  free energy    TOTEN  =        -1.06457409 eV

  energy without entropy =       -0.42490232  energy(sigma->0) =       -0.74473820


--------------------------------------------------------------------------------------------------------




----------------------------------------- Iteration    1(  29)  ---------------------------------------


    POTLOK:  cpu time    0.74: real time    0.74
    SETDIJ:  cpu time    0.00: real time    0.00
    EDDIAG:  cpu time    0.06: real time    0.06
  RMM-DIIS:  cpu time    0.23: real time    0.23
    ORTHCH:  cpu time    0.00: real time    0.00
       DOS:  cpu time    0.00: real time    0.00
    CHARGE:  cpu time    0.06: real time    0.06
    MIXING:  cpu time    0.08: real time    0.07
    --------------------------------------------
      LOOP:  cpu time    1.16: real time    1.16

 eigenvalue-minimisations  :    19
 total energy-change (2. order) :-0.3868298E-01  (-0.2205576E-03)
 number of electron      10.0000001 magnetization 
 augmentation part        0.6055946 magnetization 

 Broyden mixing:
  rms(total) = 0.54588E+00    rms(broyden)= 0.54553E+00
  rms(prec ) = 0.93323E+00
  weight for this iteration     100.00

 eigenvalues of (default mixing * dielectric matrix)
  average eigenvalue GAMMA=   1.2868
  3.8782  3.8782  2.9427  2.9427  1.8862  1.8862  1.6571  1.4246  1.1492  1.1492
  0.5696  0.5696  0.8226  0.8226  0.8268  0.6694  0.6694  0.3224  0.3224  0.5725
  0.5725  0.4988  0.4245  0.4245

 Free energy of the ion-electron system (eV)
  ---------------------------------------------------
  alpha Z        PSCENC =         0.40002888
  Ewald energy   TEWEN  =      -107.64894697
  -1/2 Hartree   DENC   =      -392.74192396
  -exchange  EXHF       =         0.00000000
  -V(xc)+E(xc)   XCENC  =        36.83624291
  PAW double counting   =       474.42982308     -476.78654477
  entropy T*S    EENTRO =        -0.41949468
  eigenvalues    EBANDS =      -114.56286147
  atomic energy  EATOM  =       579.39041991
  ---------------------------------------------------
  free energy    TOTEN  =        -1.10325706 eV

  energy without entropy =       -0.68376239  energy(sigma->0) =       -0.89350973


--------------------------------------------------------------------------------------------------------




----------------------------------------- Iteration    1(  30)  ---------------------------------------


    POTLOK:  cpu time    0.70: real time    0.70
    SETDIJ:  cpu time    0.00: real time    0.00
    EDDIAG:  cpu time    0.05: real time    0.05
  RMM-DIIS:  cpu time    0.21: real time    0.21
    ORTHCH:  cpu time    0.00: real time    0.00
       DOS:  cpu time    0.00: real time    0.00
    CHARGE:  cpu time    0.06: real time    0.06
    MIXING:  cpu time    0.10: real time    0.09
    --------------------------------------------
      LOOP:  cpu time    1.12: real time    1.12

 eigenvalue-minimisations  :    19
 total energy-change (2. order) : 0.3765671E-01  (-0.1305332E-03)
 number of electron      10.0000002 magnetization 
 augmentation part        0.5592118 magnetization 

 Broyden mixing:
  rms(total) = 0.30832E+00    rms(broyden)= 0.30827E+00
  rms(prec ) = 0.52401E+00
  weight for this iteration     100.00

 eigenvalues of (default mixing * dielectric matrix)
  average eigenvalue GAMMA=   1.3308
  3.8665  3.8665  2.8814  2.8814  2.1452  2.1452  2.5622  1.4698  1.4698  0.5700
  0.5700  1.0507  0.7189  0.7189  0.8410  0.8410  0.7795  0.7795  0.3224  0.3224
  0.5616  0.5616  0.4761  0.4761  0.3921

 Free energy of the ion-electron system (eV)
  ---------------------------------------------------
  alpha Z        PSCENC =         0.40002888
  Ewald energy   TEWEN  =      -107.64894697
  -1/2 Hartree   DENC   =      -392.46809456
  -exchange  EXHF       =         0.00000000
  -V(xc)+E(xc)   XCENC  =        36.80946883
  PAW double counting   =       473.15668263     -475.50510018
  entropy T*S    EENTRO =        -0.49912297
  eigenvalues    EBANDS =      -114.70093594
  atomic energy  EATOM  =       579.39041991
  ---------------------------------------------------
  free energy    TOTEN  =        -1.06560035 eV

  energy without entropy =       -0.56647739  energy(sigma->0) =       -0.81603887


--------------------------------------------------------------------------------------------------------




----------------------------------------- Iteration    1(  31)  ---------------------------------------


    POTLOK:  cpu time    0.73: real time    0.73
    SETDIJ:  cpu time    0.00: real time    0.00
    EDDIAG:  cpu time    0.06: real time    0.05
  RMM-DIIS:  cpu time    0.25: real time    0.25
    ORTHCH:  cpu time    0.00: real time    0.00
       DOS:  cpu time    0.00: real time    0.00
    CHARGE:  cpu time    0.07: real time    0.07
    MIXING:  cpu time    0.09: real time    0.09
    --------------------------------------------
      LOOP:  cpu time    1.20: real time    1.20

 eigenvalue-minimisations  :    21
 total energy-change (2. order) :-0.1964318E-01  (-0.2604709E-03)
 number of electron       9.9999996 magnetization 
[...]

  energy without entropy =       -0.49864885  energy(sigma->0) =       -0.77718942


--------------------------------------------------------------------------------------------------------




----------------------------------------- Iteration    1(  42)  ---------------------------------------


    POTLOK:  cpu time    0.78: real time    0.78
    SETDIJ:  cpu time    0.00: real time    0.00
    EDDIAG:  cpu time    0.06: real time    0.05
  RMM-DIIS:  cpu time    0.18: real time    0.18
    ORTHCH:  cpu time    0.00: real time    0.00
       DOS:  cpu time    0.00: real time    0.00
    CHARGE:  cpu time    0.07: real time    0.07
    MIXING:  cpu time    0.16: real time    0.16
    --------------------------------------------
      LOOP:  cpu time    1.25: real time    1.25

 eigenvalue-minimisations  :    14
 total energy-change (2. order) :-0.7291028E-03  (-0.1323503E-04)
 number of electron      10.0000000 magnetization 
 augmentation part        0.4986474 magnetization 

 Broyden mixing:
  rms(total) = 0.78379E-02    rms(broyden)= 0.69724E-02
  rms(prec ) = 0.85155E-02
  weight for this iteration     100.00
  WARNING: grid for Broyden might be to small

 eigenvalues of (default mixing * dielectric matrix)
  average eigenvalue GAMMA=   1.2645
  5.7406  3.9034  3.9034  2.5609  2.5609  2.5896  1.6781  1.6781  1.8884  1.8884
  1.5145  1.5145  1.0022  1.0022  0.5706  0.5706  0.5700  0.5700  0.8670  0.8670
  0.8842  0.7158  0.7158  0.7716  0.7716  0.3224  0.3224  0.2560  0.5898  0.5898
  0.5610  0.5610  0.4708  0.4708  0.4964  0.4235  0.4235

 Free energy of the ion-electron system (eV)
  ---------------------------------------------------
  alpha Z        PSCENC =         0.40002888
  Ewald energy   TEWEN  =      -107.64894697
  -1/2 Hartree   DENC   =      -392.76610090
  -exchange  EXHF       =         0.00000000
  -V(xc)+E(xc)   XCENC  =        36.82201293
  PAW double counting   =       473.19643761     -475.54741505
  entropy T*S    EENTRO =        -0.57569886
  eigenvalues    EBANDS =      -114.32719665
  atomic energy  EATOM  =       579.39041991
  ---------------------------------------------------
  free energy    TOTEN  =        -1.05645910 eV

  energy without entropy =       -0.48076024  energy(sigma->0) =       -0.76860967


--------------------------------------------------------------------------------------------------------




----------------------------------------- Iteration    1(  43)  ---------------------------------------


    POTLOK:  cpu time    0.76: real time    0.77
    SETDIJ:  cpu time    0.00: real time    0.00
    EDDIAG:  cpu time    0.05: real time    0.05
  RMM-DIIS:  cpu time    0.14: real time    0.14
    ORTHCH:  cpu time    0.00: real time    0.00
       DOS:  cpu time    0.00: real time    0.00
    CHARGE:  cpu time    0.06: real time    0.06
    MIXING:  cpu time    0.14: real time    0.14
    --------------------------------------------
      LOOP:  cpu time    1.16: real time    1.16

 eigenvalue-minimisations  :    11
 total energy-change (2. order) :-0.2027270E-02  (-0.4605074E-05)
 number of electron      10.0000000 magnetization 
 augmentation part        0.5196965 magnetization 

 Broyden mixing:
  rms(total) = 0.10546E+00    rms(broyden)= 0.10544E+00
  rms(prec ) = 0.18004E+00
  weight for this iteration     100.00

 eigenvalues of (default mixing * dielectric matrix)
  average eigenvalue GAMMA=   1.2806
  5.8679  3.9044  3.9044  2.6655  2.6655  2.5115  2.5115  1.7832  1.7832  1.7366
  1.7366  1.0134  1.0134  0.8874  0.8874  0.5700  0.5700  0.9655  0.9655  0.8835
  0.8835  0.7182  0.7182  0.8304  0.8304  0.3224  0.3224  0.2560  0.5635  0.5635
  0.5662  0.5662  0.4694  0.4694  0.4437  0.4437  0.4348  0.4348

 Free energy of the ion-electron system (eV)
  ---------------------------------------------------
  alpha Z        PSCENC =         0.40002888
  Ewald energy   TEWEN  =      -107.64894697
  -1/2 Hartree   DENC   =      -392.76490380
  -exchange  EXHF       =         0.00000000
  -V(xc)+E(xc)   XCENC  =        36.82396928
  PAW double counting   =       473.30319571     -475.65480255
  entropy T*S    EENTRO =        -0.55171226
  eigenvalues    EBANDS =      -114.35573456
  atomic energy  EATOM  =       579.39041991
  ---------------------------------------------------
  free energy    TOTEN  =        -1.05848637 eV

  energy without entropy =       -0.50677411  energy(sigma->0) =       -0.78263024


--------------------------------------------------------------------------------------------------------




----------------------------------------- Iteration    1(  44)  ---------------------------------------


    POTLOK:  cpu time    0.75: real time    0.76
    SETDIJ:  cpu time    0.00: real time    0.00
    EDDIAG:  cpu time    0.06: real time    0.06
  RMM-DIIS:  cpu time    0.15: real time    0.15
    ORTHCH:  cpu time    0.00: real time    0.00
       DOS:  cpu time    0.00: real time    0.00
    CHARGE:  cpu time    0.07: real time    0.07
    MIXING:  cpu time    0.15: real time    0.15
    --------------------------------------------
      LOOP:  cpu time    1.19: real time    1.19

 eigenvalue-minimisations  :    11
 total energy-change (2. order) : 0.1823682E-02  (-0.3236803E-05)
 number of electron       9.9999999 magnetization 
 augmentation part        0.4959626 magnetization 

 Broyden mixing:
  rms(total) = 0.16485E-01    rms(broyden)= 0.16237E-01
  rms(prec ) = 0.28041E-01
  weight for this iteration     100.00

 eigenvalues of (default mixing * dielectric matrix)
  average eigenvalue GAMMA=   1.2864
  5.9500  3.9043  3.9043  2.6612  2.6612  2.3793  2.3793  2.3017  1.8265  1.8265
  1.4266  1.4266  1.1899  0.9102  0.9102  1.0076  1.0076  0.5700  0.5700  0.8860
  0.8860  0.7190  0.7190  0.8099  0.8099  0.3224  0.3224  0.2560  0.6200  0.6200
  0.4992  0.4992  0.5600  0.5600  0.4710  0.4710  0.4241  0.4241  0.4772

 Free energy of the ion-electron system (eV)
  ---------------------------------------------------
  alpha Z        PSCENC =         0.40002888
  Ewald energy   TEWEN  =      -107.64894697
  -1/2 Hartree   DENC   =      -392.78237042
  -exchange  EXHF       =         0.00000000
  -V(xc)+E(xc)   XCENC  =        36.82272343
  PAW double counting   =       473.23331519     -475.58452035
  entropy T*S    EENTRO =        -0.57852126
  eigenvalues    EBANDS =      -114.30879110
  atomic energy  EATOM  =       579.39041991
  ---------------------------------------------------
  free energy    TOTEN  =        -1.05666268 eV

  energy without entropy =       -0.47814142  energy(sigma->0) =       -0.76740205


--------------------------------------------------------------------------------------------------------




----------------------------------------- Iteration    1(  45)  ---------------------------------------


    POTLOK:  cpu time    0.83: real time    0.83
    SETDIJ:  cpu time    0.00: real time    0.00
    EDDIAG:  cpu time    0.06: real time    0.06
  RMM-DIIS:  cpu time    0.14: real time    0.15
    ORTHCH:  cpu time    0.00: real time    0.00
       DOS:  cpu time    0.00: real time    0.00
    CHARGE:  cpu time    0.07: real time    0.07
    MIXING:  cpu time    0.18: real time    0.18
    --------------------------------------------
      LOOP:  cpu time    1.29: real time    1.29

 eigenvalue-minimisations  :    10
 total energy-change (2. order) :-0.4919997E-03  (-0.2062307E-05)
 number of electron       9.9999999 magnetization 
 augmentation part        0.5044708 magnetization 

 Broyden mixing:
  rms(total) = 0.27400E-01    rms(broyden)= 0.27393E-01
  rms(prec ) = 0.46658E-01
  weight for this iteration     100.00

 eigenvalues of (default mixing * dielectric matrix)
  average eigenvalue GAMMA=   1.2960
  5.9419  3.9038  3.9038  2.8871  2.8871  2.6433  2.6433  2.1987  1.8120  1.8120
  1.5440  1.5440  1.1850  0.9543  0.9543  1.0348  1.0348  0.5700  0.5700  0.8098
  0.8098  0.7231  0.7231  0.7465  0.7465  0.3224  0.3224  0.6399  0.6399  0.6300
  0.6300  0.2560  0.5593  0.5593  0.4706  0.4706  0.4375  0.4375  0.4414  0.4414

 Free energy of the ion-electron system (eV)
  ---------------------------------------------------
  alpha Z        PSCENC =         0.40002888
  Ewald energy   TEWEN  =      -107.64894697
  -1/2 Hartree   DENC   =      -392.78004080
  -exchange  EXHF       =         0.00000000
  -V(xc)+E(xc)   XCENC  =        36.82340953
  PAW double counting   =       473.30138673     -475.65274368
  entropy T*S    EENTRO =        -0.56932898
  eigenvalues    EBANDS =      -114.32133931
  atomic energy  EATOM  =       579.39041991
  ---------------------------------------------------
  free energy    TOTEN  =        -1.05715468 eV

  energy without entropy =       -0.48782570  energy(sigma->0) =       -0.77249019


--------------------------------------------------------------------------------------------------------




----------------------------------------- Iteration    1(  46)  ---------------------------------------


    POTLOK:  cpu time    0.80: real time    0.80
    SETDIJ:  cpu time    0.00: real time    0.00
    EDDIAG:  cpu time    0.06: real time    0.06
  RMM-DIIS:  cpu time    0.11: real time    0.11
    ORTHCH:  cpu time    0.00: real time    0.00
       DOS:  cpu time    0.00: real time    0.00
    CHARGE:  cpu time    0.07: real time    0.07
    MIXING:  cpu time    0.15: real time    0.15
    --------------------------------------------
      LOOP:  cpu time    1.20: real time    1.20

 eigenvalue-minimisations  :     5
 total energy-change (2. order) : 0.1229679E-03  (-0.2380282E-06)
 number of electron       9.9999999 magnetization 
 augmentation part        0.4987148 magnetization 

 Broyden mixing:
  rms(total) = 0.22342E-02    rms(broyden)= 0.21260E-02
  rms(prec ) = 0.37598E-02
  weight for this iteration     100.00

 eigenvalues of (default mixing * dielectric matrix)
  average eigenvalue GAMMA=   1.2850
  6.0070  3.9039  3.9039  2.9540  2.9540  2.6484  2.6484  2.3292  1.7992  1.7992
  1.5447  1.5447  1.1908  0.9507  0.9507  1.0129  1.0129  0.5700  0.5700  0.7396
  0.7396  0.8036  0.8036  0.7047  0.7047  0.7430  0.7430  0.3224  0.3224  0.5934
  0.5934  0.2560  0.5589  0.5589  0.4607  0.4607  0.4710  0.4710  0.4311  0.4311
  0.4797

 Free energy of the ion-electron system (eV)
  ---------------------------------------------------
  alpha Z        PSCENC =         0.40002888
  Ewald energy   TEWEN  =      -107.64894697
  -1/2 Hartree   DENC   =      -392.78877613
  -exchange  EXHF       =         0.00000000
  -V(xc)+E(xc)   XCENC  =        36.82341579
  PAW double counting   =       473.30177553     -475.65308794
  entropy T*S    EENTRO =        -0.57556984
  eigenvalues    EBANDS =      -114.30629095
  atomic energy  EATOM  =       579.39041991
  ---------------------------------------------------
  free energy    TOTEN  =        -1.05703172 eV

  energy without entropy =       -0.48146187  energy(sigma->0) =       -0.76924679


--------------------------------------------------------------------------------------------------------




----------------------------------------- Iteration    1(  47)  ---------------------------------------


    POTLOK:  cpu time    0.76: real time    0.75
    SETDIJ:  cpu time    0.00: real time    0.00
    EDDIAG:  cpu time    0.05: real time    0.05
  RMM-DIIS:  cpu time    0.12: real time    0.12
    ORTHCH:  cpu time    0.00: real time    0.00
       DOS:  cpu time    0.00: real time    0.00
    --------------------------------------------
      LOOP:  cpu time    0.93: real time    0.93

 eigenvalue-minimisations  :     7
 total energy-change (2. order) :-0.4072832E-04  (-0.2679452E-06)
 number of electron       9.9999999 magnetization 
 augmentation part        0.4987148 magnetization 

 Free energy of the ion-electron system (eV)
  ---------------------------------------------------
  alpha Z        PSCENC =         0.40002888
  Ewald energy   TEWEN  =      -107.64894697
  -1/2 Hartree   DENC   =      -392.79144978
  -exchange  EXHF       =         0.00000000
  -V(xc)+E(xc)   XCENC  =        36.82383752
  PAW double counting   =       473.33010557     -475.68147634
  entropy T*S    EENTRO =        -0.57351100
  eigenvalues    EBANDS =      -114.30608023
  atomic energy  EATOM  =       579.39041991
  ---------------------------------------------------
  free energy    TOTEN  =        -1.05707244 eV

  energy without entropy =       -0.48356144  energy(sigma->0) =       -0.77031694


--------------------------------------------------------------------------------------------------------




 average (electrostatic) potential at core
  the test charge radii are     0.6991  0.7215
  (the norm of the test charge is              1.0000)
       1 -64.0026       2 -81.0159
 
 
 
 E-fermi :  -6.7275     XC(G=0):  -0.8940     alpha+bet : -0.1603


 k-point   1 :       0.0000    0.0000    0.0000
  band No.  band energies     occupation 
      1     -21.6384      2.00000
      2     -15.2259      2.00000
      3      -6.8188      1.48149
      4      -6.8036      1.40982
      5      -6.8034      1.40865
      6      -6.6532      0.59937
      7      -6.6531      0.59893
      8      -6.6325      0.50174
      9      -0.5438      0.00000


--------------------------------------------------------------------------------------------------------


 soft charge-density along one line, spin component           1
         0         1         2         3         4         5         6         7         8         9
 total charge-density along one line
 
 pseudopotential strength for first ion, spin component:           1
 10.539  14.023   0.000  -0.000   0.000  -0.000   0.000  -0.000
 14.023  18.658   0.000  -0.000   0.000  -0.000   0.000  -0.000
  0.000   0.000  -4.683   0.000  -0.000   9.186  -0.000   0.000
 -0.000  -0.000   0.000  -4.685   0.000  -0.000   9.191  -0.000
  0.000   0.000  -0.000   0.000  -4.683   0.000  -0.000   9.187
 -0.000  -0.000   9.186  -0.000   0.000 -20.174   0.000  -0.000
  0.000   0.000  -0.000   9.191  -0.000   0.000 -20.183   0.000
 -0.000  -0.000   0.000  -0.000   9.187  -0.000   0.000 -20.175
 total augmentation occupancy for first ion, spin component:           1
  1.751   0.112   0.000   0.003   0.000   0.000   0.000   0.000
  0.112   0.007   0.000  -0.001   0.000   0.000   0.000   0.000
  0.000   0.000   0.646   0.000   0.000   0.002   0.000   0.000
  0.003  -0.001   0.000   0.602   0.000   0.000   0.002   0.000
  0.000   0.000   0.000   0.000   0.646   0.000   0.000   0.002
  0.000   0.000   0.002   0.000   0.000   0.000   0.000   0.000
  0.000   0.000   0.000   0.002   0.000   0.000   0.000   0.000
  0.000   0.000   0.000   0.000   0.002   0.000   0.000   0.000


------------------------ aborting loop because EDIFF is reached ----------------------------------------


    CHARGE:  cpu time    0.06: real time    0.06
    FORLOC:  cpu time    0.06: real time    0.06
    FORNL :  cpu time    0.04: real time    0.04
    STRESS:  cpu time    0.24: real time    0.24
    FORCOR:  cpu time    0.90: real time    0.90
    FORHAR:  cpu time    0.22: real time    0.22
    MIXING:  cpu time    0.23: real time    0.23

  FORCE on cell =-STRESS in cart. coord.  units (eV):
  Direction    XX          YY          ZZ          XY          YZ          ZX
  --------------------------------------------------------------------------------------
  Alpha Z     0.40003     0.40003     0.40003
  Ewald     -66.57712   -70.09354    29.02164     0.00000    -0.00000    -0.00000
  Hartree   103.40718    99.99742   190.00781    -0.00000    -0.00000    -0.00000
  E(xc)     -40.36368   -40.36276   -40.36574     0.00000    -0.00000     0.00000
  Local    -165.01845  -158.11706  -347.02699     0.00000    -0.00000     0.00000
  n-local   -15.03381   -15.03823   -14.87853    -0.00000    -0.00000     0.00000
  augment     5.80354     5.80672     5.82677     0.00000     0.00000    -0.00000
  Kinetic   176.61450   176.66384   175.81495     0.00000     0.00000    -0.00000
  Fock        0.00000     0.00000     0.00000     0.00000     0.00000     0.00000
  -------------------------------------------------------------------------------------
  Total      -0.76780    -0.74359    -1.20006     0.00000     0.00000     0.00000
  in kB      -1.12619    -1.09067    -1.76021     0.00000     0.00000     0.00000
  external pressure =       -1.33 kB  Pullay stress =        0.00 kB


 VOLUME and BASIS-vectors are now :
 -----------------------------------------------------------------------------
  energy-cutoff  :      400.00
  volume of cell :     1092.32
      direct lattice vectors                 reciprocal lattice vectors
    10.100000000  0.000000000  0.000000000     0.099009901  0.000000000  0.000000000
     0.000000000 10.300000000  0.000000000     0.000000000  0.097087379  0.000000000
     0.000000000  0.000000000 10.500000000     0.000000000  0.000000000  0.095238095

  length of vectors
    10.100000000 10.300000000 10.500000000     0.099009901  0.097087379  0.095238095


 FORCES acting on ions
    electron-ion (+dipol)            ewald-force                    non-local-force                 convergence-correction
 -----------------------------------------------------------------------------------------------
   0.128E-14 -.345E-14 -.360E+01   0.315E-16 -.397E-16 0.362E+01   0.000E+00 0.000E+00 -.525E-01   -.255E-12 -.299E-12 0.625E-02
   0.387E-14 0.124E-13 0.350E+01   0.127E-19 0.541E-16 -.362E+01   0.000E+00 0.000E+00 0.139E+00   -.830E-13 0.134E-12 0.920E-02
 -----------------------------------------------------------------------------------------------
   0.516E-14 0.892E-14 -.104E+00   0.315E-16 0.144E-16 0.000E+00   0.000E+00 0.000E+00 0.868E-01   -.338E-12 -.166E-12 0.155E-01
 
 
 POSITION                                       TOTAL-FORCE (eV/Angst)
 -----------------------------------------------------------------------------------
      0.00000      0.00000      0.00000         0.000000      0.000000     -0.021627
      0.00000      0.00000      5.60000         0.000000      0.000000      0.021627
 -----------------------------------------------------------------------------------
    total drift:                               -0.000000     -0.000000     -0.001780


--------------------------------------------------------------------------------------------------------



  FREE ENERGIE OF THE ION-ELECTRON SYSTEM (eV)
  ---------------------------------------------------
  free  energy   TOTEN  =        -1.05707244 eV

  energy  without entropy=       -0.48356144  energy(sigma->0) =       -0.77031694
 


--------------------------------------------------------------------------------------------------------


    POTLOK:  cpu time    0.82: real time    0.82


--------------------------------------------------------------------------------------------------------


     LOOP+:  cpu time   53.27: real time   53.33
    4ORBIT:  cpu time    0.00: real time    0.00

 total amount of memory used by VASP on root node   140193. kBytes
========================================================================

   base      :      30000. kBytes
   nonl-proj :       3171. kBytes
   fftplans  :      37440. kBytes
   grid      :      66720. kBytes
   one-center:          6. kBytes
   wavefun   :       2856. kBytes
 
  
  
 General timing and accounting informations for this job:
 ========================================================
  
                  Total CPU time used (sec):       54.684
                            User time (sec):       54.268
                          System time (sec):        0.416
                         Elapsed time (sec):       54.739
  
                   Maximum memory used (kb):      249572.
                   Average memory used (kb):           0.
  
                          Minor page faults:       196151
                          Major page faults:            0
                 Voluntary context switches:            1
