 vasp.5.3.3 18Dez12 (build Sep  7 2015 22:32:56) complex                        
  
 executed on             LinuxIFC date 2002.02.05  01:11:42
 running on    1 total cores
 distrk:  each k-point on    1 cores,    1 groups
 distr:  one band on NCORES_PER_BAND=   1 cores,    1 groups


--------------------------------------------------------------------------------------------------------


 INCAR:
 POTCAR:    PAW_PBE C 08Apr2002                   
 POTCAR:    PAW_PBE O 08Apr2002                   
 POTCAR:    PAW_PBE C 08Apr2002                   
   VRHFIN =C: s2p2                                                              
   LEXCH  = PE                                                                  
   EATOM  =   147.1560 eV,   10.8157 Ry                                         
                                                                                
   TITEL  = PAW_PBE C 08Apr2002                                                 
   LULTRA =        F    use ultrasoft PP ?                                      
   IUNSCR =        1    unscreen: 0-lin 1-nonlin 2-no                           
   RPACOR =    1.200    partial core radius                                     
   POMASS =   12.011; ZVAL   =    4.000    mass and valenz                      
   RCORE  =    1.500    outmost cutoff radius                                   
   RWIGS  =    1.630; RWIGS  =    0.863    wigner-seitz radius (au A)           
   ENMAX  =  400.000; ENMIN  =  300.000 eV                                      
   ICORE  =        2    local potential                                         
   LCOR   =        T    correct aug charges                                     
   LPAW   =        T    paw PP                                                  
   EAUG   =  644.873                                                            
   DEXC   =    0.000                                                            
   RMAX   =    1.529    core radius for proj-oper                               
   RAUG   =    1.300    factor for augmentation sphere                          
   RDEP   =    1.501    radius for radial grids                                 
   RDEPT  =    1.300    core radius for aug-charge                              
                                                                                
   Atomic configuration                                                         
    4 entries                                                                   
     n  l   j            E        occ.                                          
     1  0  0.50      -273.3789   2.0000                                         
     2  0  0.50       -13.7508   2.0000                                         
     2  1  0.50        -5.2854   2.0000                                         
     3  2  1.50        -5.4423   0.0000                                         
   Description                                                                  
     l       E           TYP  RCUT    TYP  RCUT                                 
     0    -13.7508458     23  1.200                                             
     0     -8.2022199     23  1.200                                             
     1     -5.2854383     23  1.500                                             
     1     34.0145650     23  1.500                                             
     2     -5.4423304      7  1.500                                             
  local pseudopotential read in
  partial core-charges read in
  partial kinetic energy density read in
  atomic valenz-charges read in
  non local Contribution for L=           0  read in
    real space projection operators read in
  non local Contribution for L=           0  read in
    real space projection operators read in
  non local Contribution for L=           1  read in
    real space projection operators read in
  non local Contribution for L=           1  read in
    real space projection operators read in
    PAW grid and wavefunctions read in
 
   number of l-projection  operators is LMAX  =           4
   number of lm-projection operators is LMMAX =           8
 
 POTCAR:    PAW_PBE O 08Apr2002                   
   VRHFIN =O: s2p4                                                              
   LEXCH  = PE                                                                  
   EATOM  =   432.3788 eV,   31.7789 Ry                                         
                                                                                
   TITEL  = PAW_PBE O 08Apr2002                                                 
   LULTRA =        F    use ultrasoft PP ?                                      
   IUNSCR =        1    unscreen: 0-lin 1-nonlin 2-no                           
   RPACOR =    1.200    partial core radius                                     
   POMASS =   16.000; ZVAL   =    6.000    mass and valenz                      
   RCORE  =    1.520    outmost cutoff radius                                   
   RWIGS  =    1.550; RWIGS  =    0.820    wigner-seitz radius (au A)           
   ENMAX  =  400.000; ENMIN  =  300.000 eV                                      
   ICORE  =        2    local potential                                         
   LCOR   =        T    correct aug charges                                     
   LPAW   =        T    paw PP                                                  
   EAUG   =  605.392                                                            
   DEXC   =    0.000                                                            
   RMAX   =    1.553    core radius for proj-oper                               
   RAUG   =    1.300    factor for augmentation sphere                          
   RDEP   =    1.550    radius for radial grids                                 
   RDEPT  =    1.329    core radius for aug-charge                              
                                                                                
   Atomic configuration                                                         
    4 entries                                                                   
     n  l   j            E        occ.                                          
     1  0  0.50      -514.6923   2.0000                                         
     2  0  0.50       -23.9615   2.0000                                         
     2  1  0.50        -9.0305   4.0000                                         
     3  2  1.50        -9.5241   0.0000                                         
   Description                                                                  
     l       E           TYP  RCUT    TYP  RCUT                                 
     0    -23.9615318     23  1.200                                             
     0     -9.5240782     23  1.200                                             
     1     -9.0304911     23  1.520                                             
     1      8.1634956     23  1.520                                             
     2     -9.5240782      7  1.500                                             
  local pseudopotential read in
  partial core-charges read in
  partial kinetic energy density read in
  kinetic energy density of atom read in
  atomic valenz-charges read in
  non local Contribution for L=           0  read in
    real space projection operators read in
  non local Contribution for L=           0  read in
    real space projection operators read in
  non local Contribution for L=           1  read in
    real space projection operators read in
  non local Contribution for L=           1  read in
    real space projection operators read in
    PAW grid and wavefunctions read in
 
   number of l-projection  operators is LMAX  =           4
   number of lm-projection operators is LMMAX =           8
 
  PAW_PBE C 08Apr2002                   :
 energy of atom  1       EATOM= -147.1560
 kinetic energy error for atom=    0.0288 (will be added to EATOM!!)
  PAW_PBE O 08Apr2002                   :
 energy of atom  2       EATOM= -432.3788
 kinetic energy error for atom=    0.1156 (will be added to EATOM!!)
 
 
 POSCAR: CO molecule in a box                    
  positions in cartesian coordinates
  No initial velocities read in
 exchange correlation table for  LEXCH =        8
   RHO(1)=    0.500       N(1)  =     2000
   RHO(2)=  100.500       N(2)  =     4000
 


--------------------------------------------------------------------------------------------------------


 ion  position               nearest neighbor table
   1  0.000  0.000  0.000-
   2  0.000  0.000  0.343-
 
  LATTYP: Found a simple orthorhombic cell.
 ALAT       =    10.1000000000
 B/A-ratio  =     1.0198019802
 C/A-ratio  =     1.0396039604
  
  Lattice vectors:
  
 A1 = (  10.1000000000,   0.0000000000,   0.0000000000)
 A2 = (   0.0000000000,  10.3000000000,   0.0000000000)
 A3 = (   0.0000000000,   0.0000000000,  10.5000000000)


Analysis of symmetry for initial positions (statically):
=====================================================================
 Subroutine PRICEL returns:
 Original cell was already a primitive cell.
 

 Routine SETGRP: Setting up the symmetry group for a 
 simple orthorhombic supercell.


 Subroutine GETGRP returns: Found  4 space group operations
 (whereof  4 operations were pure point group operations)
 out of a pool of  8 trial point group operations.


The static configuration has the point symmetry C_2v.


Analysis of symmetry for dynamics (positions and initial velocities):
=====================================================================
 Subroutine PRICEL returns:
 Original cell was already a primitive cell.
 

 Routine SETGRP: Setting up the symmetry group for a 
 simple orthorhombic supercell.


 Subroutine GETGRP returns: Found  4 space group operations
 (whereof  4 operations were pure point group operations)
 out of a pool of  8 trial point group operations.


The dynamic configuration has the point symmetry C_2v.


Analysis of constrained symmetry for selective dynamics:
=====================================================================
 Subroutine PRICEL returns:
 Original cell was already a primitive cell.
 

 Routine SETGRP: Setting up the symmetry group for a 
 simple orthorhombic supercell.


 Subroutine GETGRP returns: Found  4 space group operations
 (whereof  4 operations were pure point group operations)
 out of a pool of  8 trial point group operations.


The constrained configuration has the point symmetry C_2v.


 irot  :   1
 --------------------------------------------------------------------
 isymop:   1   0   0
           0   1   0
           0   0   1

 gtrans:     0.0000000     0.0000000     0.0000000

 ptrans:     0.0000000     0.0000000     0.0000000
 rotmap:
 (   1->   1)  (   2->   2) 


 irot  :   2
 --------------------------------------------------------------------
 isymop:  -1   0   0
           0  -1   0
           0   0   1

 gtrans:     0.0000000     0.0000000     0.0000000

 ptrans:     0.0000000     0.0000000     0.0000000
 rotmap:
 (   1->   1)  (   2->   2) 


 irot  :   3
 --------------------------------------------------------------------
 isymop:   1   0   0
           0  -1   0
           0   0   1

 gtrans:     0.0000000     0.0000000     0.0000000

 ptrans:     0.0000000     0.0000000     0.0000000
 rotmap:
 (   1->   1)  (   2->   2) 


 irot  :   4
 --------------------------------------------------------------------
 isymop:  -1   0   0
           0   1   0
           0   0   1

 gtrans:     0.0000000     0.0000000     0.0000000

 ptrans:     0.0000000     0.0000000     0.0000000
 rotmap:
 (   1->   1)  (   2->   2) 
 
 
 KPOINTS: Gamma-point only                        

Automatic generation of k-mesh.
Space group operators:
 irot       det(A)        alpha          n_x          n_y          n_z        tau_x        tau_y        tau_z
    1     1.000000     0.000000     1.000000     0.000000     0.000000     0.000000     0.000000     0.000000
    2     1.000000   180.000000     0.000000     0.000000     1.000000     0.000000     0.000000     0.000000
    3    -1.000000   180.000000     0.000000     1.000000     0.000000     0.000000     0.000000     0.000000
    4    -1.000000   180.000000     1.000000     0.000000     0.000000     0.000000     0.000000     0.000000
 
 Subroutine IBZKPT returns following result:
 ===========================================
 
 Found      1 irreducible k-points:
 
 Following reciprocal coordinates:
            Coordinates               Weight
  0.000000  0.000000  0.000000      1.000000
 
 Following cartesian coordinates:
            Coordinates               Weight
  0.000000  0.000000  0.000000      1.000000
 


--------------------------------------------------------------------------------------------------------




 Dimension of arrays:
   k-points           NKPTS =      1   k-points in BZ     NKDIM =      1   number of bands    NBANDS=      9
   number of dos      NEDOS =    301   number of ions     NIONS =      2
   non local maximal  LDIM  =      4   non local SUM 2l+1 LMDIM =      8
   total plane-waves  NPLWV = 135000
   max r-space proj   IRMAX =      1   max aug-charges    IRDMAX=   1803
   dimension x,y,z NGX =    50 NGY =   50 NGZ =   54
   dimension x,y,z NGXF=   100 NGYF=  100 NGZF=  108
   support grid    NGXF=   100 NGYF=  100 NGZF=  108
   ions per type =               1   1
 NGX,Y,Z   is equivalent  to a cutoff of   8.23,  8.07,  8.55 a.u.
 NGXF,Y,Z  is equivalent  to a cutoff of  16.46, 16.14, 17.10 a.u.


 I would recommend the setting:
   dimension x,y,z NGX =    49 NGY =   50 NGZ =   51
 SYSTEM =  Hello World                             
 POSCAR =  CO molecule in a box                    

 Startparameter for this run:
   NWRITE =      2    write-flag & timer
   PREC   = normal    normal or accurate (medium, high low for compatibility)
   ISTART =      0    job   : 0-new  1-cont  2-samecut
   ICHARG =      2    charge: 1-file 2-atom 10-const
   ISPIN  =      1    spin polarized calculation?
   LNONCOLLINEAR =      F non collinear calculations
   LSORBIT =      F    spin-orbit coupling
   INIWAV =      1    electr: 0-lowe 1-rand  2-diag
   LASPH  =      F    aspherical Exc in radial PAW
   METAGGA=      F    non-selfconsistent MetaGGA calc.

 Electronic Relaxation 1
   ENCUT  =  400.0 eV  29.40 Ry    5.42 a.u.  16.47 16.80 17.12*2*pi/ulx,y,z
   ENINI  =  400.0     initial cutoff
   ENAUG  =  644.9 eV  augmentation charge cutoff
   NELM   =     60;   NELMIN=  2; NELMDL=  0     # of ELM steps 
   EDIFF  = 0.1E-03   stopping-criterion for ELM
   LREAL  =      F    real-space projection
   NLSPLINE    = F    spline interpolate recip. space projectors
   LCOMPAT=      F    compatible to vasp.4.4
   GGA_COMPAT  = T    GGA compatible to vasp.4.4-vasp.4.6
   LMAXPAW     = -100 max onsite density
   LMAXMIX     =    2 max onsite mixed and CHGCAR
   VOSKOWN=      0    Vosko Wilk Nusair interpolation
   ROPT   =    0.00000   0.00000
 Ionic relaxation
   EDIFFG = -.1E-01   stopping-criterion for IOM
   NSW    =      0    number of steps for IOM
   NBLOCK =      1;   KBLOCK =      1    inner block; outer block 
   IBRION =     -1    ionic relax: 0-MD 1-quasi-New 2-CG
   NFREE  =      0    steps in history (QN), initial steepest desc. (CG)
   ISIF   =      2    stress and relaxation
   IWAVPR =     10    prediction:  0-non 1-charg 2-wave 3-comb
   ISYM   =      2    0-nonsym 1-usesym 2-fastsym
   LCORR  =      T    Harris-Foulkes like correction to forces

   POTIM  = 0.5000    time-step for ionic-motion
   TEIN   =    0.0    initial temperature
   TEBEG  =    0.0;   TEEND  =   0.0 temperature during run
   SMASS  =  -3.00    Nose mass-parameter (am)
   estimated Nose-frequenzy (Omega)   =  0.10E-29 period in steps =****** mass=  -0.233E-26a.u.
   SCALEE = 1.0000    scale energy and forces
   NPACO  =    256;   APACO  = 16.0  distance and # of slots for P.C.
   PSTRESS=    0.0 pullay stress

  Mass of Ions in am
   POMASS =  12.01 16.00
  Ionic Valenz
   ZVAL   =   4.00  6.00
  Atomic Wigner-Seitz radii
   RWIGS  =  -1.00 -1.00
  virtual crystal weights 
   VCA    =   1.00  1.00
   NELECT =      10.0000    total number of electrons
   NUPDOWN=      -1.0000    fix difference up-down

 DOS related values:
   EMIN   =  10.00;   EMAX   =-10.00  energy-range for DOS
   EFERMI =   0.00
   ISMEAR =     0;   SIGMA  =   0.20  broadening in eV -4-tet -1-fermi 0-gaus

 Electronic relaxation 2 (details)
   IALGO  =     68    algorithm
   LDIAG  =      T    sub-space diagonalisation (order eigenvalues)
   LSUBROT=      T    optimize rotation matrix (better conditioning)
   TURBO    =      0    0=normal 1=particle mesh
   IRESTART =      0    0=no restart 2=restart with 2 vectors
   NREBOOT  =      0    no. of reboots
   NMIN     =      0    reboot dimension
   EREF     =   0.00    reference energy to select bands
   IMIX   =      4    mixing-type and parameters
     AMIX     =   0.40;   BMIX     =  1.00
     AMIX_MAG =   1.60;   BMIX_MAG =  1.00
     AMIN     =   0.10
     WC   =   100.;   INIMIX=   1;  MIXPRE=   1;  MAXMIX= -45

 Intra band minimization:
   WEIMIN = 0.0000     energy-eigenvalue tresh-hold
   EBREAK =  0.28E-05  absolut break condition
   DEPER  =   0.30     relativ break condition  

   TIME   =   0.40     timestep for ELM

  volume/ion in A,a.u.               =     546.16      3685.65
  Fermi-wavevector in a.u.,A,eV,Ry     =   0.342472  0.647179  1.595791  0.117287
  Thomas-Fermi vector in A             =   1.247862
 
 Write flags
   LWAVE  =      F    write WAVECAR
   LCHARG =      F    write CHGCAR
   LVTOT  =      F    write LOCPOT, total local potential
   LVHAR  =      F    write LOCPOT, Hartree potential only
   LELF   =      F    write electronic localiz. function (ELF)
   LORBIT =      0    0 simple, 1 ext, 2 COOP (PROOUT)


 Dipole corrections
   LMONO  =      F    monopole corrections only (constant potential shift)
   LDIPOL =      F    correct potential (dipole corrections)
   IDIPOL =      0    1-x, 2-y, 3-z, 4-all directions 
   EPSILON=  1.0000000 bulk dielectric constant

 Exchange correlation treatment:
   GGA     =    --    GGA type
   LEXCH   =     8    internal setting for exchange type
   VOSKOWN=      0    Vosko Wilk Nusair interpolation
   LHFCALC =     F    Hartree Fock is set to
   LHFONE  =     F    Hartree Fock one center treatment
   AEXX    =    0.0000 exact exchange contribution

 Linear response parameters
   LEPSILON=     F    determine dielectric tensor
   LRPA    =     F    only Hartree local field effects (RPA)
   LNABLA  =     F    use nabla operator in PAW spheres
   LVEL    =     F    velocity operator in full k-point grid
   LINTERFAST=   F  fast interpolation
   KINTER  =     0    interpolate to denser k-point grid
   CSHIFT  =0.1000    complex shift for real part using Kramers Kronig
   OMEGAMAX=  -1.0    maximum frequency
   DEG_THRESHOLD= 0.2000000E-02 threshold for treating states as degnerate
   RTIME   =    0.100 relaxation time in fs

 Orbital magnetization related:
   ORBITALMAG=     F  switch on orbital magnetization
   LCHIMAG   =     F  perturbation theory with respect to B field
   DQ        =  0.001000  dq finite difference perturbation B field



--------------------------------------------------------------------------------------------------------


 Static calculation
 charge density and potential will be updated during run
 non-spin polarized calculation
 RMM-DIIS sequential band-by-band and
  variant of blocked Davidson during initial phase
 perform sub-space diagonalisation
    before iterative eigenvector-optimisation
 modified Broyden-mixing scheme, WC =      100.0
 initial mixing is a Kerker type mixing with AMIX =  0.4000 and BMIX =      1.0000
 Hartree-type preconditioning will be used
 using additional bands            4
 reciprocal scheme for non local part
 use partial core corrections
 calculate Harris-corrections to forces 
   (improved forces if not selfconsistent)
 use gradient corrections 
 use of overlap-Matrix (Vanderbilt PP)
 Gauss-broadening in eV      SIGMA  =   0.20


--------------------------------------------------------------------------------------------------------


  energy-cutoff  :      400.00
  volume of cell :     1092.32
      direct lattice vectors                 reciprocal lattice vectors
    10.100000000  0.000000000  0.000000000     0.099009901  0.000000000  0.000000000
     0.000000000 10.300000000  0.000000000     0.000000000  0.097087379  0.000000000
     0.000000000  0.000000000 10.500000000     0.000000000  0.000000000  0.095238095

  length of vectors
    10.100000000 10.300000000 10.500000000     0.099009901  0.097087379  0.095238095


 
 k-points in units of 2pi/SCALE and weight: Gamma-point only                        
   0.00000000  0.00000000  0.00000000       1.000
 
 k-points in reciprocal lattice and weights: Gamma-point only                        
   0.00000000  0.00000000  0.00000000       1.000
 
 position of ions in fractional coordinates (direct lattice) 
   0.00000000  0.00000000  0.00000000
   0.00000000  0.00000000  0.34285714
 
 position of ions in cartesian coordinates  (Angst):
   0.00000000  0.00000000  0.00000000
   0.00000000  0.00000000  3.60000000
 


--------------------------------------------------------------------------------------------------------


 k-point  1 :   0.0000 0.0000 0.0000  plane waves:   19819

 maximum and minimum number of plane-waves per node :     19819    19819

 maximum number of plane-waves:     19819
 maximum index in each direction: 
   IXMAX=   16   IYMAX=   16   IZMAX=   17
   IXMIN=  -16   IYMIN=  -16   IZMIN=  -17

 WARNING: aliasing errors must be expected set NGX to  66 to avoid them
 WARNING: aliasing errors must be expected set NGY to  66 to avoid them
 WARNING: aliasing errors must be expected set NGZ to  70 to avoid them
 aliasing errors are usually negligible using standard VASP settings
 and one can safely disregard these warnings

 serial   3D FFT for wavefunctions
 parallel 3D FFT for charge:
    minimum data exchange during FFTs selected (reduces bandwidth)


 total amount of memory used by VASP on root node   140193. kBytes
========================================================================

   base      :      30000. kBytes
   nonl-proj :       3171. kBytes
   fftplans  :      37440. kBytes
   grid      :      66720. kBytes
   one-center:          6. kBytes
   wavefun   :       2856. kBytes
 
 Broyden mixing: mesh for mixing (old mesh)
   NGX = 33   NGY = 33   NGZ = 35
  (NGX  =100   NGY  =100   NGZ  =108)
  gives a total of  38115 points

 initial charge density was supplied:
 charge density of overlapping atoms calculated
 number of electron      10.0000000 magnetization 
 keeping initial charge density in first step


--------------------------------------------------------------------------------------------------------


 Maximum index for augmentation-charges         1573 (set IRDMAX)


--------------------------------------------------------------------------------------------------------


 First call to EWALD:  gamma=   0.172
 Maximum number of real-space cells 3x 3x 3
 Maximum number of reciprocal cells 3x 3x 3

 FEWALD executed in parallel
    FEWALD:  cpu time    0.00: real time    0.00


----------------------------------------- Iteration    1(   1)  ---------------------------------------


    POTLOK:  cpu time    0.76: real time    0.76
    SETDIJ:  cpu time    0.00: real time    0.00
     EDDAV:  cpu time    0.34: real time    0.33
       DOS:  cpu time    0.00: real time    0.00
    --------------------------------------------
      LOOP:  cpu time    1.10: real time    1.10

 eigenvalue-minimisations  :    26
 total energy-change (2. order) : 0.5217955E+02  (-0.1925155E+03)
 number of electron      10.0000000 magnetization 
 augmentation part       10.0000000 magnetization 

 Free energy of the ion-electron system (eV)
  ---------------------------------------------------
  alpha Z        PSCENC =         0.40002888
  Ewald energy   TEWEN  =       -92.89090762
  -1/2 Hartree   DENC   =      -400.87556472
  -exchange  EXHF       =         0.00000000
  -V(xc)+E(xc)   XCENC  =        36.69590040
  PAW double counting   =       455.07152327     -457.43959975
  entropy T*S    EENTRO =        -0.00041465
  eigenvalues    EBANDS =       -68.17183524
  atomic energy  EATOM  =       579.39041991
  ---------------------------------------------------
  free energy    TOTEN  =        52.17955049 eV

  energy without entropy =       52.17996514  energy(sigma->0) =       52.17975781


--------------------------------------------------------------------------------------------------------




----------------------------------------- Iteration    1(   2)  ---------------------------------------


     EDDAV:  cpu time    0.43: real time    0.43
       DOS:  cpu time    0.00: real time    0.00
    --------------------------------------------
      LOOP:  cpu time    0.43: real time    0.43

 eigenvalue-minimisations  :    35
 total energy-change (2. order) :-0.4444425E+02  (-0.4418994E+02)
 number of electron      10.0000000 magnetization 
 augmentation part       10.0000000 magnetization 

 Free energy of the ion-electron system (eV)
  ---------------------------------------------------
  alpha Z        PSCENC =         0.40002888
  Ewald energy   TEWEN  =       -92.89090762
  -1/2 Hartree   DENC   =      -400.87556472
  -exchange  EXHF       =         0.00000000
  -V(xc)+E(xc)   XCENC  =        36.69590040
  PAW double counting   =       455.07152327     -457.43959975
  entropy T*S    EENTRO =        -0.00000000
  eigenvalues    EBANDS =      -112.61650166
  atomic energy  EATOM  =       579.39041991
  ---------------------------------------------------
  free energy    TOTEN  =         7.73529872 eV

  energy without entropy =        7.73529872  energy(sigma->0) =        7.73529872


--------------------------------------------------------------------------------------------------------




----------------------------------------- Iteration    1(   3)  ---------------------------------------


     EDDAV:  cpu time    0.27: real time    0.27
       DOS:  cpu time    0.00: real time    0.00
    --------------------------------------------
      LOOP:  cpu time    0.27: real time    0.27

 eigenvalue-minimisations  :    20
 total energy-change (2. order) :-0.1461110E+02  (-0.1460933E+02)
 number of electron      10.0000000 magnetization 
 augmentation part       10.0000000 magnetization 

 Free energy of the ion-electron system (eV)
  ---------------------------------------------------
  alpha Z        PSCENC =         0.40002888
  Ewald energy   TEWEN  =       -92.89090762
  -1/2 Hartree   DENC   =      -400.87556472
  -exchange  EXHF       =         0.00000000
  -V(xc)+E(xc)   XCENC  =        36.69590040
  PAW double counting   =       455.07152327     -457.43959975
  entropy T*S    EENTRO =        -0.00000000
  eigenvalues    EBANDS =      -127.22759759
  atomic energy  EATOM  =       579.39041991
  ---------------------------------------------------
  free energy    TOTEN  =        -6.87579721 eV

  energy without entropy =       -6.87579721  energy(sigma->0) =       -6.87579721


--------------------------------------------------------------------------------------------------------




----------------------------------------- Iteration    1(   4)  ---------------------------------------


     EDDAV:  cpu time    0.26: real time    0.26
       DOS:  cpu time    0.00: real time    0.00
    --------------------------------------------
      LOOP:  cpu time    0.26: real time    0.26

 eigenvalue-minimisations  :    18
 total energy-change (2. order) :-0.6155097E+00  (-0.6153996E+00)
 number of electron      10.0000000 magnetization 
 augmentation part       10.0000000 magnetization 

 Free energy of the ion-electron system (eV)
  ---------------------------------------------------
  alpha Z        PSCENC =         0.40002888
  Ewald energy   TEWEN  =       -92.89090762
  -1/2 Hartree   DENC   =      -400.87556472
  -exchange  EXHF       =         0.00000000
  -V(xc)+E(xc)   XCENC  =        36.69590040
  PAW double counting   =       455.07152327     -457.43959975
  entropy T*S    EENTRO =        -0.00000000
  eigenvalues    EBANDS =      -127.84310724
  atomic energy  EATOM  =       579.39041991
  ---------------------------------------------------
  free energy    TOTEN  =        -7.49130686 eV

  energy without entropy =       -7.49130686  energy(sigma->0) =       -7.49130686


--------------------------------------------------------------------------------------------------------




----------------------------------------- Iteration    1(   5)  ---------------------------------------


     EDDAV:  cpu time    0.34: real time    0.34
       DOS:  cpu time    0.00: real time    0.00
    CHARGE:  cpu time    0.06: real time    0.06
    MIXING:  cpu time    0.02: real time    0.02
    --------------------------------------------
      LOOP:  cpu time    0.43: real time    0.43

 eigenvalue-minimisations  :    26
 total energy-change (2. order) :-0.1423760E-01  (-0.1423760E-01)
 number of electron      10.0000082 magnetization 
 augmentation part        0.7908389 magnetization 

 Broyden mixing:
  rms(total) = 0.14391E+01    rms(broyden)= 0.14386E+01
  rms(prec ) = 0.24131E+01
  weight for this iteration     100.00

 Free energy of the ion-electron system (eV)
  ---------------------------------------------------
  alpha Z        PSCENC =         0.40002888
  Ewald energy   TEWEN  =       -92.89090762
  -1/2 Hartree   DENC   =      -400.87556472
  -exchange  EXHF       =         0.00000000
  -V(xc)+E(xc)   XCENC  =        36.69590040
  PAW double counting   =       455.07152327     -457.43959975
  entropy T*S    EENTRO =        -0.00000000
  eigenvalues    EBANDS =      -127.85734484
  atomic energy  EATOM  =       579.39041991
  ---------------------------------------------------
  free energy    TOTEN  =        -7.50554446 eV

  energy without entropy =       -7.50554446  energy(sigma->0) =       -7.50554446


--------------------------------------------------------------------------------------------------------




----------------------------------------- Iteration    1(   6)  ---------------------------------------


    POTLOK:  cpu time    0.65: real time    0.65
    SETDIJ:  cpu time    0.00: real time    0.00
    EDDIAG:  cpu time    0.05: real time    0.05
  RMM-DIIS:  cpu time    0.22: real time    0.22
    ORTHCH:  cpu time    0.00: real time    0.00
       DOS:  cpu time    0.00: real time    0.00
    CHARGE:  cpu time    0.05: real time    0.05
    MIXING:  cpu time    0.02: real time    0.02
    --------------------------------------------
      LOOP:  cpu time    1.00: real time    1.00

 eigenvalue-minimisations  :    20
 total energy-change (2. order) :-0.3127010E+02  (-0.2011483E+01)
 number of electron       9.9999961 magnetization 
 augmentation part       -0.0293545 magnetization 

 Broyden mixing:
  rms(total) = 0.37322E+01    rms(broyden)= 0.37304E+01
  rms(prec ) = 0.59815E+01
  weight for this iteration     100.00

 eigenvalues of (default mixing * dielectric matrix)
  average eigenvalue GAMMA=   0.2759
  0.2759

 Free energy of the ion-electron system (eV)
  ---------------------------------------------------
  alpha Z        PSCENC =         0.40002888
  Ewald energy   TEWEN  =       -92.89090762
  -1/2 Hartree   DENC   =      -435.84468621
  -exchange  EXHF       =         0.00000000
  -V(xc)+E(xc)   XCENC  =        38.37663482
  PAW double counting   =       521.47402126     -524.23911947
  entropy T*S    EENTRO =        -0.00000000
  eigenvalues    EBANDS =      -125.44203523
  atomic energy  EATOM  =       579.39041991
  ---------------------------------------------------
  free energy    TOTEN  =       -38.77564366 eV

  energy without entropy =      -38.77564366  energy(sigma->0) =      -38.77564366


--------------------------------------------------------------------------------------------------------




----------------------------------------- Iteration    1(   7)  ---------------------------------------


    POTLOK:  cpu time    0.67: real time    0.67
    SETDIJ:  cpu time    0.00: real time    0.00
    EDDIAG:  cpu time    0.06: real time    0.06
  RMM-DIIS:  cpu time    0.24: real time    0.23
    ORTHCH:  cpu time    0.00: real time    0.00
       DOS:  cpu time    0.00: real time    0.00
    CHARGE:  cpu time    0.07: real time    0.07
    MIXING:  cpu time    0.02: real time    0.02
    --------------------------------------------
      LOOP:  cpu time    1.06: real time    1.06

 eigenvalue-minimisations  :    19
 total energy-change (2. order) : 0.3747251E+02  (-0.1040211E+01)
 number of electron      10.0000038 magnetization 
 augmentation part        0.4252199 magnetization 

 Broyden mixing:
  rms(total) = 0.41575E+00    rms(broyden)= 0.41161E+00
  rms(prec ) = 0.53471E+00
  weight for this iteration     100.00

 eigenvalues of (default mixing * dielectric matrix)
  average eigenvalue GAMMA=   0.2751
  0.2751  0.2751

 Free energy of the ion-electron system (eV)
  ---------------------------------------------------
  alpha Z        PSCENC =         0.40002888
  Ewald energy   TEWEN  =       -92.89090762
  -1/2 Hartree   DENC   =      -412.46489268
  -exchange  EXHF       =         0.00000000
  -V(xc)+E(xc)   XCENC  =        37.33675968
  PAW double counting   =       481.38118411     -483.91929249
  entropy T*S    EENTRO =        -0.39297067
  eigenvalues    EBANDS =      -110.14346155
  atomic energy  EATOM  =       579.39041991
  ---------------------------------------------------
  free energy    TOTEN  =        -1.30313242 eV

  energy without entropy =       -0.91016175  energy(sigma->0) =       -1.10664709


--------------------------------------------------------------------------------------------------------




----------------------------------------- Iteration    1(   8)  ---------------------------------------


    POTLOK:  cpu time    0.69: real time    0.69
    SETDIJ:  cpu time    0.00: real time    0.00
    EDDIAG:  cpu time    0.06: real time    0.06
  RMM-DIIS:  cpu time    0.24: real time    0.24
    ORTHCH:  cpu time    0.00: real time    0.00
       DOS:  cpu time    0.00: real time    0.00
    CHARGE:  cpu time    0.06: real time    0.06
    MIXING:  cpu time    0.02: real time    0.02
    --------------------------------------------
      LOOP:  cpu time    1.08: real time    1.08

 eigenvalue-minimisations  :    22
 total energy-change (2. order) :-0.1077019E+00  (-0.4496158E-01)
 number of electron      10.0000059 magnetization 
 augmentation part        0.5773279 magnetization 

 Broyden mixing:
  rms(total) = 0.46919E+00    rms(broyden)= 0.46816E+00
  rms(prec ) = 0.89675E+00
  weight for this iteration     100.00

 eigenvalues of (default mixing * dielectric matrix)
  average eigenvalue GAMMA=   0.3251
  0.3150  0.3150  0.3453

 Free energy of the ion-electron system (eV)
  ---------------------------------------------------
  alpha Z        PSCENC =         0.40002888
  Ewald energy   TEWEN  =       -92.89090762
  -1/2 Hartree   DENC   =      -410.82761068
  -exchange  EXHF       =         0.00000000
  -V(xc)+E(xc)   XCENC  =        37.17157460
  PAW double counting   =       478.61858986     -481.11608339
  entropy T*S    EENTRO =        -0.26103822
  eigenvalues    EBANDS =      -111.89580768
  atomic energy  EATOM  =       579.39041991
  ---------------------------------------------------
  free energy    TOTEN  =        -1.41083435 eV

  energy without entropy =       -1.14979613  energy(sigma->0) =       -1.28031524


--------------------------------------------------------------------------------------------------------




----------------------------------------- Iteration    1(   9)  ---------------------------------------


    POTLOK:  cpu time    0.65: real time    0.65
    SETDIJ:  cpu time    0.00: real time    0.00
    EDDIAG:  cpu time    0.06: real time    0.06
  RMM-DIIS:  cpu time    0.24: real time    0.24
    ORTHCH:  cpu time    0.00: real time    0.00
       DOS:  cpu time    0.00: real time    0.00
    CHARGE:  cpu time    0.06: real time    0.06
    MIXING:  cpu time    0.03: real time    0.03
    --------------------------------------------
      LOOP:  cpu time    1.05: real time    1.05

 eigenvalue-minimisations  :    19
 total energy-change (2. order) :-0.2933504E+01  (-0.6908186E-01)
 number of electron      10.0000078 magnetization 
 augmentation part        0.7418171 magnetization 

 Broyden mixing:
  rms(total) = 0.12456E+01    rms(broyden)= 0.12453E+01
  rms(prec ) = 0.21710E+01
  weight for this iteration     100.00

 eigenvalues of (default mixing * dielectric matrix)
  average eigenvalue GAMMA=   0.9172
  1.5332  1.5332  0.3012  0.3012

 Free energy of the ion-electron system (eV)
  ---------------------------------------------------
  alpha Z        PSCENC =         0.40002888
  Ewald energy   TEWEN  =       -92.89090762
  -1/2 Hartree   DENC   =      -406.95585519
  -exchange  EXHF       =         0.00000000
  -V(xc)+E(xc)   XCENC  =        37.03256087
  PAW double counting   =       471.95024800     -474.41759173
  entropy T*S    EENTRO =        -0.00000000
  eigenvalues    EBANDS =      -118.85324183
  atomic energy  EATOM  =       579.39041991
  ---------------------------------------------------
  free energy    TOTEN  =        -4.34433871 eV

  energy without entropy =       -4.34433871  energy(sigma->0) =       -4.34433871


--------------------------------------------------------------------------------------------------------




----------------------------------------- Iteration    1(  10)  ---------------------------------------


    POTLOK:  cpu time    0.75: real time    0.75
    SETDIJ:  cpu time    0.00: real time    0.00
    EDDIAG:  cpu time    0.06: real time    0.06
  RMM-DIIS:  cpu time    0.27: real time    0.27
    ORTHCH:  cpu time    0.00: real time    0.00
       DOS:  cpu time    0.00: real time    0.00
    CHARGE:  cpu time    0.06: real time    0.06
    MIXING:  cpu time    0.03: real time    0.03
    --------------------------------------------
      LOOP:  cpu time    1.18: real time    1.18

 eigenvalue-minimisations  :    22
 total energy-change (2. order) :-0.1421847E+01  (-0.1435056E-01)
 number of electron      10.0000079 magnetization 
 augmentation part        0.7564228 magnetization 

 Broyden mixing:
  rms(total) = 0.13020E+01    rms(broyden)= 0.13020E+01
  rms(prec ) = 0.22555E+01
  weight for this iteration     100.00

 eigenvalues of (default mixing * dielectric matrix)
  average eigenvalue GAMMA=   0.7318
  1.4201  1.4201  0.3015  0.3015  0.2157

 Free energy of the ion-electron system (eV)
  ---------------------------------------------------
  alpha Z        PSCENC =         0.40002888
  Ewald energy   TEWEN  =       -92.89090762
  -1/2 Hartree   DENC   =      -406.15843977
  -exchange  EXHF       =         0.00000000
  -V(xc)+E(xc)   XCENC  =        37.05344555
  PAW double counting   =       471.87234036     -474.34929146
  entropy T*S    EENTRO =        -0.00000000
  eigenvalues    EBANDS =      -121.08378169
  atomic energy  EATOM  =       579.39041991
  ---------------------------------------------------
  free energy    TOTEN  =        -5.76618585 eV

  energy without entropy =       -5.76618585  energy(sigma->0) =       -5.76618585


--------------------------------------------------------------------------------------------------------




----------------------------------------- Iteration    1(  11)  ---------------------------------------


    POTLOK:  cpu time    0.69: real time    0.69
    SETDIJ:  cpu time    0.00: real time    0.00
    EDDIAG:  cpu time    0.05: real time    0.05
  RMM-DIIS:  cpu time    0.22: real time    0.22
    ORTHCH:  cpu time    0.00: real time    0.00
       DOS:  cpu time    0.00: real time    0.00
    CHARGE:  cpu time    0.05: real time    0.05
    MIXING:  cpu time    0.03: real time    0.03
    --------------------------------------------
      LOOP:  cpu time    1.05: real time    1.05

 eigenvalue-minimisations  :    20
 total energy-change (2. order) :-0.5192285E+01  (-0.4104753E-01)
 number of electron      10.0000079 magnetization 
 augmentation part        0.7645857 magnetization 

 Broyden mixing:
  rms(total) = 0.13460E+01    rms(broyden)= 0.13460E+01
  rms(prec ) = 0.23969E+01
  weight for this iteration     100.00

 eigenvalues of (default mixing * dielectric matrix)
  average eigenvalue GAMMA=   1.6660
  3.5137  3.5137  1.7747  0.3021  0.3021  0.5897

 Free energy of the ion-electron system (eV)
  ---------------------------------------------------
  alpha Z        PSCENC =         0.40002888
  Ewald energy   TEWEN  =       -92.89090762
  -1/2 Hartree   DENC   =      -409.53761715
  -exchange  EXHF       =         0.00000000
  -V(xc)+E(xc)   XCENC  =        37.64359236
  PAW double counting   =       499.26033087     -501.90128895
  entropy T*S    EENTRO =        -0.00000000
  eigenvalues    EBANDS =      -123.32302908
  atomic energy  EATOM  =       579.39041991
  ---------------------------------------------------
  free energy    TOTEN  =       -10.95847078 eV

  energy without entropy =      -10.95847078  energy(sigma->0) =      -10.95847078


--------------------------------------------------------------------------------------------------------




----------------------------------------- Iteration    1(  12)  ---------------------------------------


    POTLOK:  cpu time    0.66: real time    0.67
    SETDIJ:  cpu time    0.00: real time    0.00
    EDDIAG:  cpu time    0.06: real time    0.06
  RMM-DIIS:  cpu time    0.24: real time    0.25
    ORTHCH:  cpu time    0.00: real time    0.00
       DOS:  cpu time    0.00: real time    0.00
    CHARGE:  cpu time    0.07: real time    0.07
    MIXING:  cpu time    0.03: real time    0.03
    --------------------------------------------
      LOOP:  cpu time    1.07: real time    1.08

 eigenvalue-minimisations  :    20
 total energy-change (2. order) : 0.8581838E+01  (-0.9107028E+00)
 number of electron       9.9999972 magnetization 
 augmentation part        0.0442841 magnetization 

 Broyden mixing:
  rms(total) = 0.23321E+01    rms(broyden)= 0.23291E+01
  rms(prec ) = 0.38983E+01
  weight for this iteration     100.00

 eigenvalues of (default mixing * dielectric matrix)
  average eigenvalue GAMMA=   1.3980
  3.4598  3.4598  1.6545  0.3020  0.3020  0.5953  0.0122

 Free energy of the ion-electron system (eV)
  ---------------------------------------------------
  alpha Z        PSCENC =         0.40002888
  Ewald energy   TEWEN  =       -92.89090762
  -1/2 Hartree   DENC   =      -404.40368687
  -exchange  EXHF       =         0.00000000
  -V(xc)+E(xc)   XCENC  =        36.52637252
  PAW double counting   =       447.50303515     -449.82555864
  entropy T*S    EENTRO =        -0.18529421
  eigenvalues    EBANDS =      -118.89104202
  atomic energy  EATOM  =       579.39041991
  ---------------------------------------------------
  free energy    TOTEN  =        -2.37663289 eV

  energy without entropy =       -2.19133868  energy(sigma->0) =       -2.28398578


--------------------------------------------------------------------------------------------------------




----------------------------------------- Iteration    1(  13)  ---------------------------------------


    POTLOK:  cpu time    0.69: real time    0.69
    SETDIJ:  cpu time    0.00: real time    0.00
    EDDIAG:  cpu time    0.06: real time    0.06
  RMM-DIIS:  cpu time    0.22: real time    0.22
    ORTHCH:  cpu time    0.00: real time    0.00
       DOS:  cpu time    0.00: real time    0.00
    CHARGE:  cpu time    0.06: real time    0.06
    MIXING:  cpu time    0.03: real time    0.03
    --------------------------------------------
      LOOP:  cpu time    1.07: real time    1.07

 eigenvalue-minimisations  :    19
 total energy-change (2. order) : 0.2538961E+00  (-0.8624060E-02)
 number of electron      10.0000080 magnetization 
 augmentation part        0.7494021 magnetization 

 Broyden mixing:
  rms(total) = 0.12802E+01    rms(broyden)= 0.12762E+01
  rms(prec ) = 0.21160E+01
  weight for this iteration     100.00

 eigenvalues of (default mixing * dielectric matrix)
  average eigenvalue GAMMA=   1.2770
  2.8971  2.8971  2.0449  0.8184  0.8184  0.3016  0.3016  0.1370

 Free energy of the ion-electron system (eV)
  ---------------------------------------------------
  alpha Z        PSCENC =         0.40002888
  Ewald energy   TEWEN  =       -92.89090762
  -1/2 Hartree   DENC   =      -403.04522328
  -exchange  EXHF       =         0.00000000
  -V(xc)+E(xc)   XCENC  =        36.60818822
  PAW double counting   =       451.93833708     -454.26296001
  entropy T*S    EENTRO =        -0.00377306
  eigenvalues    EBANDS =      -120.25684694
  atomic energy  EATOM  =       579.39041991
  ---------------------------------------------------
  free energy    TOTEN  =        -2.12273682 eV

  energy without entropy =       -2.11896376  energy(sigma->0) =       -2.12085029


--------------------------------------------------------------------------------------------------------




----------------------------------------- Iteration    1(  14)  ---------------------------------------


    POTLOK:  cpu time    0.64: real time    0.65
    SETDIJ:  cpu time    0.00: real time    0.00
    EDDIAG:  cpu time    0.05: real time    0.05
  RMM-DIIS:  cpu time    0.28: real time    0.28
    ORTHCH:  cpu time    0.00: real time    0.00
       DOS:  cpu time    0.00: real time    0.00
    CHARGE:  cpu time    0.06: real time    0.07
    MIXING:  cpu time    0.04: real time    0.04
    --------------------------------------------
      LOOP:  cpu time    1.08: real time    1.08

 eigenvalue-minimisations  :    22
 total energy-change (2. order) : 0.6405841E+00  (-0.2018487E-02)
 number of electron      10.0000071 magnetization 
 augmentation part        0.6808004 magnetization 

 Broyden mixing:
  rms(total) = 0.93609E+00    rms(broyden)= 0.93596E+00
  rms(prec ) = 0.15523E+01
  weight for this iteration     100.00

 eigenvalues of (default mixing * dielectric matrix)
  average eigenvalue GAMMA=   1.3251
  2.9530  2.9530  2.2295  1.6215  0.7150  0.7150  0.3017  0.3017  0.1353

 Free energy of the ion-electron system (eV)
  ---------------------------------------------------
  alpha Z        PSCENC =         0.40002888
  Ewald energy   TEWEN  =       -92.89090762
  -1/2 Hartree   DENC   =      -404.47231074
  -exchange  EXHF       =         0.00000000
  -V(xc)+E(xc)   XCENC  =        36.61156484
  PAW double counting   =       457.64636815     -459.98247323
  entropy T*S    EENTRO =        -0.15911762
  eigenvalues    EBANDS =      -118.02572532
  atomic energy  EATOM  =       579.39041991
  ---------------------------------------------------
  free energy    TOTEN  =        -1.48215275 eV

  energy without entropy =       -1.32303513  energy(sigma->0) =       -1.40259394


--------------------------------------------------------------------------------------------------------




----------------------------------------- Iteration    1(  15)  ---------------------------------------


    POTLOK:  cpu time    0.69: real time    0.69
    SETDIJ:  cpu time    0.00: real time    0.00
    EDDIAG:  cpu time    0.06: real time    0.06
  RMM-DIIS:  cpu time    0.24: real time    0.24
    ORTHCH:  cpu time    0.00: real time    0.00
       DOS:  cpu time    0.00: real time    0.00
    CHARGE:  cpu time    0.07: real time    0.07
    MIXING:  cpu time    0.04: real time    0.04
    --------------------------------------------
      LOOP:  cpu time    1.10: real time    1.10

 eigenvalue-minimisations  :    19
 total energy-change (2. order) :-0.7141781E+00  (-0.4845324E-02)
 number of electron       9.9999973 magnetization 
 augmentation part        0.0299492 magnetization 

 Broyden mixing:
  rms(total) = 0.24334E+01    rms(broyden)= 0.24314E+01
  rms(prec ) = 0.40832E+01
  weight for this iteration     100.00

 eigenvalues of (default mixing * dielectric matrix)
  average eigenvalue GAMMA=   1.1970
  2.9606  2.9606  1.8868  1.8868  0.7004  0.7004  0.3017  0.3017  0.1356  0.1356

 Free energy of the ion-electron system (eV)
  ---------------------------------------------------
  alpha Z        PSCENC =         0.40002888
  Ewald energy   TEWEN  =       -92.89090762
  -1/2 Hartree   DENC   =      -406.95614134
  -exchange  EXHF       =         0.00000000
  -V(xc)+E(xc)   XCENC  =        36.72163832
  PAW double counting   =       466.77936006     -469.12734165
  entropy T*S    EENTRO =        -0.23713026
  eigenvalues    EBANDS =      -116.27625711
  atomic energy  EATOM  =       579.39041991
  ---------------------------------------------------
  free energy    TOTEN  =        -2.19633081 eV

  energy without entropy =       -1.95920055  energy(sigma->0) =       -2.07776568


--------------------------------------------------------------------------------------------------------




----------------------------------------- Iteration    1(  16)  ---------------------------------------


    POTLOK:  cpu time    0.69: real time    0.69
    SETDIJ:  cpu time    0.00: real time    0.00
    EDDIAG:  cpu time    0.05: real time    0.05
  RMM-DIIS:  cpu time    0.21: real time    0.21
    ORTHCH:  cpu time    0.00: real time    0.00
       DOS:  cpu time    0.00: real time    0.00
    CHARGE:  cpu time    0.06: real time    0.06
    MIXING:  cpu time    0.04: real time    0.04
    --------------------------------------------
      LOOP:  cpu time    1.05: real time    1.05

 eigenvalue-minimisations  :    19
 total energy-change (2. order) :-0.1216664E+01  (-0.2976427E-01)
 number of electron      10.0000080 magnetization 
 augmentation part        0.7597113 magnetization 

 Broyden mixing:
  rms(total) = 0.13313E+01    rms(broyden)= 0.13283E+01
  rms(prec ) = 0.22158E+01
  weight for this iteration     100.00

 eigenvalues of (default mixing * dielectric matrix)
  average eigenvalue GAMMA=   1.2823
  3.2079  3.2079  2.3618  1.6957  0.8123  0.8123  0.3016  0.3016  0.6343  0.6343
  0.1358

 Free energy of the ion-electron system (eV)
  ---------------------------------------------------
  alpha Z        PSCENC =         0.40002888
  Ewald energy   TEWEN  =       -92.89090762
  -1/2 Hartree   DENC   =      -404.80767154
  -exchange  EXHF       =         0.00000000
  -V(xc)+E(xc)   XCENC  =        36.79266547
  PAW double counting   =       469.32491425     -471.66866547
  entropy T*S    EENTRO =        -0.00000005
  eigenvalues    EBANDS =      -119.95377865
  atomic energy  EATOM  =       579.39041991
  ---------------------------------------------------
  free energy    TOTEN  =        -3.41299481 eV

  energy without entropy =       -3.41299477  energy(sigma->0) =       -3.41299479


--------------------------------------------------------------------------------------------------------




----------------------------------------- Iteration    1(  17)  ---------------------------------------


    POTLOK:  cpu time    0.70: real time    0.69
    SETDIJ:  cpu time    0.00: real time    0.00
    EDDIAG:  cpu time    0.06: real time    0.06
  RMM-DIIS:  cpu time    0.23: real time    0.23
    ORTHCH:  cpu time    0.00: real time    0.00
       DOS:  cpu time    0.00: real time    0.00
    CHARGE:  cpu time    0.07: real time    0.07
    MIXING:  cpu time    0.04: real time    0.04
    --------------------------------------------
      LOOP:  cpu time    1.10: real time    1.10

 eigenvalue-minimisations  :    19
 total energy-change (2. order) : 0.1400628E+01  (-0.1010146E-01)
 number of electron      10.0000078 magnetization 
 augmentation part        0.7303870 magnetization 

 Broyden mixing:
  rms(total) = 0.11938E+01    rms(broyden)= 0.11936E+01
  rms(prec ) = 0.20131E+01
  weight for this iteration     100.00

 eigenvalues of (default mixing * dielectric matrix)
  average eigenvalue GAMMA=   1.2532
  3.1424  3.1424  2.3222  2.3222  0.3016  0.3016  0.6145  0.6787  0.6787  0.6991
  0.6991  0.1358

 Free energy of the ion-electron system (eV)
  ---------------------------------------------------
  alpha Z        PSCENC =         0.40002888
  Ewald energy   TEWEN  =       -92.89090762
  -1/2 Hartree   DENC   =      -407.34382888
  -exchange  EXHF       =         0.00000000
  -V(xc)+E(xc)   XCENC  =        36.87435397
  PAW double counting   =       475.11573348     -477.49669287
  entropy T*S    EENTRO =        -0.01038465
  eigenvalues    EBANDS =      -116.05108948
  atomic energy  EATOM  =       579.39041991
  ---------------------------------------------------
  free energy    TOTEN  =        -2.01236725 eV

  energy without entropy =       -2.00198260  energy(sigma->0) =       -2.00717492


--------------------------------------------------------------------------------------------------------




----------------------------------------- Iteration    1(  18)  ---------------------------------------


    POTLOK:  cpu time    0.72: real time    0.72
    SETDIJ:  cpu time    0.00: real time    0.00
    EDDIAG:  cpu time    0.06: real time    0.06
  RMM-DIIS:  cpu time    0.25: real time    0.25
    ORTHCH:  cpu time    0.00: real time    0.00
       DOS:  cpu time    0.00: real time    0.00
    CHARGE:  cpu time    0.06: real time    0.06
    MIXING:  cpu time    0.04: real time    0.04
    --------------------------------------------
      LOOP:  cpu time    1.13: real time    1.13

 eigenvalue-minimisations  :    22
 total energy-change (2. order) : 0.3358031E+00  (-0.1143167E-02)
 number of electron      10.0000075 magnetization 
 augmentation part        0.7054147 magnetization 

 Broyden mixing:
  rms(total) = 0.10802E+01    rms(broyden)= 0.10801E+01
  rms(prec ) = 0.18251E+01
  weight for this iteration     100.00

 eigenvalues of (default mixing * dielectric matrix)
  average eigenvalue GAMMA=   1.1762
  3.1707  3.1707  2.3365  2.3365  0.7672  0.7672  0.5069  0.5069  0.3016  0.3016
  0.5609  0.4278  0.1358

 Free energy of the ion-electron system (eV)
  ---------------------------------------------------
  alpha Z        PSCENC =         0.40002888
  Ewald energy   TEWEN  =       -92.89090762
  -1/2 Hartree   DENC   =      -407.51955826
  -exchange  EXHF       =         0.00000000
  -V(xc)+E(xc)   XCENC  =        36.87392079
  PAW double counting   =       474.70262083     -477.08072482
  entropy T*S    EENTRO =        -0.05877027
  eigenvalues    EBANDS =      -115.49359360
  atomic energy  EATOM  =       579.39041991
  ---------------------------------------------------
  free energy    TOTEN  =        -1.67656416 eV

  energy without entropy =       -1.61779389  energy(sigma->0) =       -1.64717903


--------------------------------------------------------------------------------------------------------




----------------------------------------- Iteration    1(  19)  ---------------------------------------


    POTLOK:  cpu time    0.67: real time    0.67
    SETDIJ:  cpu time    0.00: real time    0.00
    EDDIAG:  cpu time    0.06: real time    0.06
  RMM-DIIS:  cpu time    0.24: real time    0.24
    ORTHCH:  cpu time    0.00: real time    0.00
       DOS:  cpu time    0.00: real time    0.00
    CHARGE:  cpu time    0.06: real time    0.06
    MIXING:  cpu time    0.05: real time    0.05
    --------------------------------------------
      LOOP:  cpu time    1.09: real time    1.09

 eigenvalue-minimisations  :    19
 total energy-change (2. order) :-0.6078482E+00  (-0.1986043E-02)
 number of electron      10.0000079 magnetization 
 augmentation part        0.7391061 magnetization 

 Broyden mixing:
  rms(total) = 0.12374E+01    rms(broyden)= 0.12373E+01
  rms(prec ) = 0.20820E+01
  weight for this iteration     100.00

 eigenvalues of (default mixing * dielectric matrix)
  average eigenvalue GAMMA=   1.0909
  3.1722  3.1722  2.3338  2.3338  0.7661  0.7661  0.5678  0.4843  0.4843  0.3017
  0.3017  0.3543  0.1358  0.0983

 Free energy of the ion-electron system (eV)
  ---------------------------------------------------
  alpha Z        PSCENC =         0.40002888
  Ewald energy   TEWEN  =       -92.89090762
  -1/2 Hartree   DENC   =      -406.57632244
  -exchange  EXHF       =         0.00000000
  -V(xc)+E(xc)   XCENC  =        36.84015531
  PAW double counting   =       473.35439031     -475.72165624
  entropy T*S    EENTRO =        -0.00165018
  eigenvalues    EBANDS =      -117.07887029
  atomic energy  EATOM  =       579.39041991
  ---------------------------------------------------
  free energy    TOTEN  =        -2.28441234 eV

  energy without entropy =       -2.28276216  energy(sigma->0) =       -2.28358725


--------------------------------------------------------------------------------------------------------




----------------------------------------- Iteration    1(  20)  ---------------------------------------


    POTLOK:  cpu time    0.71: real time    0.71
    SETDIJ:  cpu time    0.00: real time    0.00
    EDDIAG:  cpu time    0.06: real time    0.06
  RMM-DIIS:  cpu time    0.20: real time    0.20
    ORTHCH:  cpu time    0.00: real time    0.00
       DOS:  cpu time    0.00: real time    0.00
    CHARGE:  cpu time    0.07: real time    0.07
    MIXING:  cpu time    0.05: real time    0.05
    --------------------------------------------
      LOOP:  cpu time    1.10: real time    1.10

 eigenvalue-minimisations  :    16
 total energy-change (2. order) : 0.2547198E+00  (-0.7081510E-04)
 number of electron      10.0000078 magnetization 
 augmentation part        0.7333488 magnetization 

 Broyden mixing:
  rms(total) = 0.12097E+01    rms(broyden)= 0.12097E+01
  rms(prec ) = 0.20332E+01
  weight for this iteration     100.00

 eigenvalues of (default mixing * dielectric matrix)
  average eigenvalue GAMMA=   1.2112
  3.1420  3.1420  2.1756  2.1756  1.2822  1.2822  0.7831  0.7831  0.6656  0.6656
  0.3016  0.3016  0.6659  0.6659  0.1358

 Free energy of the ion-electron system (eV)
  ---------------------------------------------------
  alpha Z        PSCENC =         0.40002888
  Ewald energy   TEWEN  =       -92.89090762
  -1/2 Hartree   DENC   =      -406.60003451
  -exchange  EXHF       =         0.00000000
  -V(xc)+E(xc)   XCENC  =        36.82537039
  PAW double counting   =       472.82205054     -475.18550019
  entropy T*S    EENTRO =        -0.00860141
  eigenvalues    EBANDS =      -116.78251851
  atomic energy  EATOM  =       579.39041991
  ---------------------------------------------------
  free energy    TOTEN  =        -2.02969253 eV

  energy without entropy =       -2.02109111  energy(sigma->0) =       -2.02539182


--------------------------------------------------------------------------------------------------------




----------------------------------------- Iteration    1(  21)  ---------------------------------------


    POTLOK:  cpu time    0.69: real time    0.69
    SETDIJ:  cpu time    0.00: real time    0.00
    EDDIAG:  cpu time    0.05: real time    0.05
  RMM-DIIS:  cpu time    0.21: real time    0.21
    ORTHCH:  cpu time    0.00: real time    0.00
       DOS:  cpu time    0.00: real time    0.00
    CHARGE:  cpu time    0.06: real time    0.06
    MIXING:  cpu time    0.05: real time    0.05
    --------------------------------------------
      LOOP:  cpu time    1.06: real time    1.07

 eigenvalue-minimisations  :    19
 total energy-change (2. order) : 0.3630356E+00  (-0.2932747E-03)
 number of electron      10.0000075 magnetization 
 augmentation part        0.7101617 magnetization 

 Broyden mixing:
  rms(total) = 0.10967E+01    rms(broyden)= 0.10967E+01
  rms(prec ) = 0.18422E+01
  weight for this iteration     100.00

 eigenvalues of (default mixing * dielectric matrix)
  average eigenvalue GAMMA=   1.2872
  2.7889  2.7889  2.2960  2.2960  2.1255  2.1255  0.6978  0.6978  0.9002  0.9002
  0.3016  0.3016  0.7829  0.7829  0.6741  0.1358

 Free energy of the ion-electron system (eV)
  ---------------------------------------------------
  alpha Z        PSCENC =         0.40002888
  Ewald energy   TEWEN  =       -92.89090762
  -1/2 Hartree   DENC   =      -406.55989444
  -exchange  EXHF       =         0.00000000
  -V(xc)+E(xc)   XCENC  =        36.79678676
  PAW double counting   =       472.39374777     -474.74727551
  entropy T*S    EENTRO =        -0.06223975
  eigenvalues    EBANDS =      -116.38732288
  atomic energy  EATOM  =       579.39041991
  ---------------------------------------------------
  free energy    TOTEN  =        -1.66665688 eV

  energy without entropy =       -1.60441713  energy(sigma->0) =       -1.63553700


--------------------------------------------------------------------------------------------------------




----------------------------------------- Iteration    1(  22)  ---------------------------------------


    POTLOK:  cpu time    0.70: real time    0.70
    SETDIJ:  cpu time    0.00: real time    0.00
    EDDIAG:  cpu time    0.06: real time    0.06
  RMM-DIIS:  cpu time    0.24: real time    0.23
    ORTHCH:  cpu time    0.00: real time    0.00
       DOS:  cpu time    0.00: real time    0.00
    CHARGE:  cpu time    0.07: real time    0.07
    MIXING:  cpu time    0.06: real time    0.06
    --------------------------------------------
      LOOP:  cpu time    1.12: real time    1.12

 eigenvalue-minimisations  :    19
 total energy-change (2. order) : 0.2591300E+00  (-0.3192798E-03)
 number of electron      10.0000066 magnetization 
 augmentation part        0.6501344 magnetization 

 Broyden mixing:
  rms(total) = 0.79375E+00    rms(broyden)= 0.79368E+00
  rms(prec ) = 0.13330E+01
  weight for this iteration     100.00

 eigenvalues of (default mixing * dielectric matrix)
  average eigenvalue GAMMA=   1.2933
  2.7333  2.7333  2.2651  2.2651  2.4799  2.4799  1.2025  0.7117  0.7117  0.3016
  0.3016  0.7409  0.7409  0.7590  0.7590  0.6650  0.1358

 Free energy of the ion-electron system (eV)
  ---------------------------------------------------
  alpha Z        PSCENC =         0.40002888
  Ewald energy   TEWEN  =       -92.89090762
  -1/2 Hartree   DENC   =      -406.47563761
  -exchange  EXHF       =         0.00000000
  -V(xc)+E(xc)   XCENC  =        36.76582719
  PAW double counting   =       471.54293552     -473.88698558
  entropy T*S    EENTRO =        -0.20572670
  eigenvalues    EBANDS =      -116.04748090
  atomic energy  EATOM  =       579.39041991
  ---------------------------------------------------
  free energy    TOTEN  =        -1.40752691 eV

  energy without entropy =       -1.20180021  energy(sigma->0) =       -1.30466356


--------------------------------------------------------------------------------------------------------




----------------------------------------- Iteration    1(  23)  ---------------------------------------


    POTLOK:  cpu time    0.72: real time    0.72
    SETDIJ:  cpu time    0.00: real time    0.00
    EDDIAG:  cpu time    0.06: real time    0.06
  RMM-DIIS:  cpu time    0.22: real time    0.22
    ORTHCH:  cpu time    0.00: real time    0.00
       DOS:  cpu time    0.00: real time    0.00
    CHARGE:  cpu time    0.06: real time    0.06
    MIXING:  cpu time    0.06: real time    0.05
    --------------------------------------------
      LOOP:  cpu time    1.12: real time    1.12

 eigenvalue-minimisations  :    20
 total energy-change (2. order) :-0.2975675E+00  (-0.6460181E-02)
 number of electron       9.9999990 magnetization 
 augmentation part        0.1525849 magnetization 

 Broyden mixing:
  rms(total) = 0.17888E+01    rms(broyden)= 0.17866E+01
  rms(prec ) = 0.29900E+01
  weight for this iteration     100.00

 eigenvalues of (default mixing * dielectric matrix)
  average eigenvalue GAMMA=   1.2098
  2.9308  2.9308  2.2821  2.1179  2.1179  0.9278  0.9278  1.1132  1.1132  0.7022
  0.7022  0.8560  0.8560  0.3016  0.3016  0.7736  0.6862  0.1358

 Free energy of the ion-electron system (eV)
  ---------------------------------------------------
  alpha Z        PSCENC =         0.40002888
  Ewald energy   TEWEN  =       -92.89090762
  -1/2 Hartree   DENC   =      -406.88267013
  -exchange  EXHF       =         0.00000000
  -V(xc)+E(xc)   XCENC  =        36.72762642
  PAW double counting   =       469.82008735     -472.15482312
  entropy T*S    EENTRO =        -0.40834354
  eigenvalues    EBANDS =      -115.70651258
  atomic energy  EATOM  =       579.39041991
  ---------------------------------------------------
  free energy    TOTEN  =        -1.70509442 eV

  energy without entropy =       -1.29675088  energy(sigma->0) =       -1.50092265


--------------------------------------------------------------------------------------------------------




----------------------------------------- Iteration    1(  24)  ---------------------------------------


    POTLOK:  cpu time    0.67: real time    0.68
    SETDIJ:  cpu time    0.00: real time    0.00
    EDDIAG:  cpu time    0.06: real time    0.06
  RMM-DIIS:  cpu time    0.25: real time    0.25
    ORTHCH:  cpu time    0.00: real time    0.00
       DOS:  cpu time    0.00: real time    0.00
    CHARGE:  cpu time    0.07: real time    0.07
    MIXING:  cpu time    0.06: real time    0.06
    --------------------------------------------
      LOOP:  cpu time    1.11: real time    1.11

 eigenvalue-minimisations  :    20
 total energy-change (2. order) :-0.2522936E+00  (-0.1226712E-02)
 number of electron       9.9999978 magnetization 
 augmentation part        0.0690946 magnetization 

 Broyden mixing:
  rms(total) = 0.22203E+01    rms(broyden)= 0.22202E+01
  rms(prec ) = 0.37299E+01
  weight for this iteration     100.00

 eigenvalues of (default mixing * dielectric matrix)
  average eigenvalue GAMMA=   1.1596
  3.0249  3.0249  2.5002  1.8539  1.5834  1.5834  1.2841  0.8376  0.7282  0.7282
  0.7064  0.7064  0.3016  0.3016  0.6893  0.6893  0.6767  0.6767  0.1358

 Free energy of the ion-electron system (eV)
  ---------------------------------------------------
  alpha Z        PSCENC =         0.40002888
  Ewald energy   TEWEN  =       -92.89090762
  -1/2 Hartree   DENC   =      -406.89931757
  -exchange  EXHF       =         0.00000000
  -V(xc)+E(xc)   XCENC  =        36.74041954
  PAW double counting   =       468.45739647     -470.78324714
  entropy T*S    EENTRO =        -0.30648408
  eigenvalues    EBANDS =      -116.06569642
  atomic energy  EATOM  =       579.39041991
  ---------------------------------------------------
  free energy    TOTEN  =        -1.95738804 eV

  energy without entropy =       -1.65090396  energy(sigma->0) =       -1.80414600


--------------------------------------------------------------------------------------------------------




----------------------------------------- Iteration    1(  25)  ---------------------------------------


    POTLOK:  cpu time    0.72: real time    0.72
    SETDIJ:  cpu time    0.00: real time    0.00
    EDDIAG:  cpu time    0.05: real time    0.05
  RMM-DIIS:  cpu time    0.24: real time    0.24
    ORTHCH:  cpu time    0.00: real time    0.00
       DOS:  cpu time    0.00: real time    0.00
    CHARGE:  cpu time    0.07: real time    0.07
    MIXING:  cpu time    0.07: real time    0.07
    --------------------------------------------
      LOOP:  cpu time    1.17: real time    1.17

 eigenvalue-minimisations  :    19
 total energy-change (2. order) : 0.6307656E+00  (-0.2917632E-02)
 number of electron      10.0000065 magnetization 
 augmentation part        0.6367132 magnetization 

 Broyden mixing:
  rms(total) = 0.73594E+00    rms(broyden)= 0.73078E+00
  rms(prec ) = 0.12213E+01
  weight for this iteration     100.00

 eigenvalues of (default mixing * dielectric matrix)
  average eigenvalue GAMMA=   1.1374
  3.0489  3.0489  2.4309  1.2133  1.2133  1.5820  1.5820  1.3077  1.3077  0.6903
  0.6903  0.7889  0.7889  0.3016  0.3016  0.7465  0.6629  0.6629  0.1358  0.2439

 Free energy of the ion-electron system (eV)
  ---------------------------------------------------
  alpha Z        PSCENC =         0.40002888
  Ewald energy   TEWEN  =       -92.89090762
  -1/2 Hartree   DENC   =      -406.45195129
  -exchange  EXHF       =         0.00000000
  -V(xc)+E(xc)   XCENC  =        36.79287363
  PAW double counting   =       470.07362675     -472.40603960
  entropy T*S    EENTRO =        -0.22862734
  eigenvalues    EBANDS =      -116.00604578
  atomic energy  EATOM  =       579.39041991
  ---------------------------------------------------
  free energy    TOTEN  =        -1.32662246 eV

  energy without entropy =       -1.09799511  energy(sigma->0) =       -1.21230878


--------------------------------------------------------------------------------------------------------




----------------------------------------- Iteration    1(  26)  ---------------------------------------


    POTLOK:  cpu time    0.70: real time    0.70
    SETDIJ:  cpu time    0.00: real time    0.00
    EDDIAG:  cpu time    0.05: real time    0.05
  RMM-DIIS:  cpu time    0.21: real time    0.21
    ORTHCH:  cpu time    0.00: real time    0.00
       DOS:  cpu time    0.00: real time    0.00
    CHARGE:  cpu time    0.06: real time    0.06
    MIXING:  cpu time    0.07: real time    0.08
    --------------------------------------------
      LOOP:  cpu time    1.10: real time    1.10

 eigenvalue-minimisations  :    19
 total energy-change (2. order) : 0.3089328E-01  (-0.9059139E-03)
 number of electron      10.0000046 magnetization 
 augmentation part        0.5112416 magnetization 

 Broyden mixing:
  rms(total) = 0.88980E-01    rms(broyden)= 0.88936E-01
  rms(prec ) = 0.15156E+00
  weight for this iteration     100.00

 eigenvalues of (default mixing * dielectric matrix)
  average eigenvalue GAMMA=   1.0840
  3.0510  3.0510  2.4265  1.2037  1.2037  1.5850  1.5850  1.2957  1.2957  0.6900
  0.6900  0.3016  0.3016  0.7924  0.7924  0.7502  0.6588  0.6588  0.1358  0.0447
  0.2497

 Free energy of the ion-electron system (eV)
  ---------------------------------------------------
  alpha Z        PSCENC =         0.40002888
  Ewald energy   TEWEN  =       -92.89090762
  -1/2 Hartree   DENC   =      -407.25413909
  -exchange  EXHF       =         0.00000000
  -V(xc)+E(xc)   XCENC  =        36.78807997
  PAW double counting   =       471.90060450     -474.24787256
  entropy T*S    EENTRO =        -0.41093463
  eigenvalues    EBANDS =      -114.97100854
  atomic energy  EATOM  =       579.39041991
  ---------------------------------------------------
  free energy    TOTEN  =        -1.29572918 eV

  energy without entropy =       -0.88479454  energy(sigma->0) =       -1.09026186


--------------------------------------------------------------------------------------------------------




----------------------------------------- Iteration    1(  27)  ---------------------------------------


    POTLOK:  cpu time    0.72: real time    0.72
    SETDIJ:  cpu time    0.00: real time    0.00
    EDDIAG:  cpu time    0.06: real time    0.06
  RMM-DIIS:  cpu time    0.24: real time    0.24
    ORTHCH:  cpu time    0.00: real time    0.00
       DOS:  cpu time    0.00: real time    0.00
    CHARGE:  cpu time    0.07: real time    0.07
    MIXING:  cpu time    0.08: real time    0.08
    --------------------------------------------
      LOOP:  cpu time    1.17: real time    1.17

 eigenvalue-minimisations  :    19
 total energy-change (2. order) :-0.3721576E+00  (-0.1556121E-02)
 number of electron       9.9999993 magnetization 
 augmentation part        0.1677650 magnetization 

 Broyden mixing:
  rms(total) = 0.16983E+01    rms(broyden)= 0.16974E+01
  rms(prec ) = 0.28448E+01
  weight for this iteration     100.00

 eigenvalues of (default mixing * dielectric matrix)
  average eigenvalue GAMMA=   1.1465
  2.9670  2.9670  2.4793  2.2032  2.2032  1.3786  1.3786  1.2161  1.2161  0.6798
  0.6798  0.3016  0.3016  0.6423  0.6423  0.7794  0.7794  0.7293  0.6220  0.6220
  0.1358  0.2980

 Free energy of the ion-electron system (eV)
  ---------------------------------------------------
  alpha Z        PSCENC =         0.40002888
  Ewald energy   TEWEN  =       -92.89090762
  -1/2 Hartree   DENC   =      -407.58945072
  -exchange  EXHF       =         0.00000000
  -V(xc)+E(xc)   XCENC  =        36.77632708
  PAW double counting   =       471.11116695     -473.45597664
  entropy T*S    EENTRO =        -0.43349282
  eigenvalues    EBANDS =      -114.97600183
  atomic energy  EATOM  =       579.39041991
  ---------------------------------------------------
  free energy    TOTEN  =        -1.66788681 eV

  energy without entropy =       -1.23439399  energy(sigma->0) =       -1.45114040


--------------------------------------------------------------------------------------------------------




----------------------------------------- Iteration    1(  28)  ---------------------------------------


    POTLOK:  cpu time    0.72: real time    0.72
    SETDIJ:  cpu time    0.00: real time    0.00
    EDDIAG:  cpu time    0.05: real time    0.05
  RMM-DIIS:  cpu time    0.21: real time    0.21
    ORTHCH:  cpu time    0.00: real time    0.00
       DOS:  cpu time    0.00: real time    0.00
    CHARGE:  cpu time    0.06: real time    0.06
    MIXING:  cpu time    0.07: real time    0.07
    --------------------------------------------
      LOOP:  cpu time    1.11: real time    1.11

 eigenvalue-minimisations  :    19
 total energy-change (2. order) : 0.3691256E+00  (-0.1468902E-02)
 number of electron      10.0000058 magnetization 
 augmentation part        0.5889378 magnetization 

 Broyden mixing:
  rms(total) = 0.49422E+00    rms(broyden)= 0.49071E+00
  rms(prec ) = 0.82815E+00
  weight for this iteration     100.00

 eigenvalues of (default mixing * dielectric matrix)
  average eigenvalue GAMMA=   1.2840
  3.0138  3.0138  3.2469  3.2469  2.5872  1.9170  1.9170  1.3106  1.3106  0.7155
  0.7155  0.7426  0.7426  0.3016  0.3016  0.7746  0.7746  0.6725  0.6725  0.6739
  0.1358  0.3727  0.3727

 Free energy of the ion-electron system (eV)
  ---------------------------------------------------
  alpha Z        PSCENC =         0.40002888
  Ewald energy   TEWEN  =       -92.89090762
  -1/2 Hartree   DENC   =      -407.12566393
  -exchange  EXHF       =         0.00000000
  -V(xc)+E(xc)   XCENC  =        36.81670920
  PAW double counting   =       471.52399293     -473.87204891
  entropy T*S    EENTRO =        -0.30443961
  eigenvalues    EBANDS =      -115.23685205
  atomic energy  EATOM  =       579.39041991
  ---------------------------------------------------
  free energy    TOTEN  =        -1.29876120 eV

  energy without entropy =       -0.99432158  energy(sigma->0) =       -1.14654139


--------------------------------------------------------------------------------------------------------




----------------------------------------- Iteration    1(  29)  ---------------------------------------


    POTLOK:  cpu time    0.71: real time    0.71
    SETDIJ:  cpu time    0.00: real time    0.00
    EDDIAG:  cpu time    0.06: real time    0.06
  RMM-DIIS:  cpu time    0.24: real time    0.24
    ORTHCH:  cpu time    0.00: real time    0.00
       DOS:  cpu time    0.00: real time    0.00
    CHARGE:  cpu time    0.06: real time    0.07
    MIXING:  cpu time    0.08: real time    0.09
    --------------------------------------------
      LOOP:  cpu time    1.16: real time    1.17

 eigenvalue-minimisations  :    19
 total energy-change (2. order) :-0.3740046E-02  (-0.2290106E-03)
 number of electron      10.0000050 magnetization 
 augmentation part        0.5384128 magnetization 

 Broyden mixing:
  rms(total) = 0.22933E+00    rms(broyden)= 0.22930E+00
  rms(prec ) = 0.38621E+00
  weight for this iteration     100.00

 eigenvalues of (default mixing * dielectric matrix)
  average eigenvalue GAMMA=   1.3262
  3.9153  3.9153  3.1814  3.1814  2.4474  1.9147  1.9147  1.3496  1.3496  0.7183
  0.7183  0.7599  0.7599  0.3016  0.3016  0.7601  0.7601  0.6478  0.6478  0.6509
  0.6509  0.1358  0.4226  0.4226

 Free energy of the ion-electron system (eV)
  ---------------------------------------------------
  alpha Z        PSCENC =         0.40002888
  Ewald energy   TEWEN  =       -92.89090762
  -1/2 Hartree   DENC   =      -406.98364626
  -exchange  EXHF       =         0.00000000
  -V(xc)+E(xc)   XCENC  =        36.76939249
  PAW double counting   =       470.55114253     -472.89280581
  entropy T*S    EENTRO =        -0.37931513
  eigenvalues    EBANDS =      -115.26681022
  atomic energy  EATOM  =       579.39041991
  ---------------------------------------------------
  free energy    TOTEN  =        -1.30250124 eV

  energy without entropy =       -0.92318611  energy(sigma->0) =       -1.11284368


--------------------------------------------------------------------------------------------------------




----------------------------------------- Iteration    1(  30)  ---------------------------------------


    POTLOK:  cpu time    0.73: real time    0.73
    SETDIJ:  cpu time    0.00: real time    0.00
    EDDIAG:  cpu time    0.06: real time    0.06
  RMM-DIIS:  cpu time    0.15: real time    0.15
    ORTHCH:  cpu time    0.00: real time    0.00
       DOS:  cpu time    0.00: real time    0.00
    CHARGE:  cpu time    0.07: real time    0.07
    MIXING:  cpu time    0.08: real time    0.08
    --------------------------------------------
      LOOP:  cpu time    1.10: real time    1.09

 eigenvalue-minimisations  :    11
 total energy-change (2. order) : 0.4823324E-02  (-0.7566519E-05)
 number of electron      10.0000048 magnetization 
 augmentation part        0.5268516 magnetization 

 Broyden mixing:
  rms(total) = 0.16919E+00    rms(broyden)= 0.16919E+00
  rms(prec ) = 0.28555E+00
  weight for this iteration     100.00

 eigenvalues of (default mixing * dielectric matrix)
  average eigenvalue GAMMA=   1.2877
  3.9487  3.9487  3.1638  3.1638  2.3662  1.9067  1.9067  1.3410  1.3410  0.7825
  0.7825  0.6992  0.6992  0.7160  0.7160  0.7534  0.7534  0.3016  0.3016  0.6347
  0.6347  0.1358  0.4005  0.4005  0.3939

 Free energy of the ion-electron system (eV)
  ---------------------------------------------------
  alpha Z        PSCENC =         0.40002888
  Ewald energy   TEWEN  =       -92.89090762
  -1/2 Hartree   DENC   =      -406.99380487
  -exchange  EXHF       =         0.00000000
  -V(xc)+E(xc)   XCENC  =        36.76878388
  PAW double counting   =       470.56764423     -472.90902430
  entropy T*S    EENTRO =        -0.39344905
  eigenvalues    EBANDS =      -115.23736899
  atomic energy  EATOM  =       579.39041991
  ---------------------------------------------------
  free energy    TOTEN  =        -1.29767792 eV

  energy without entropy =       -0.90422887  energy(sigma->0) =       -1.10095339


--------------------------------------------------------------------------------------------------------




----------------------------------------- Iteration    1(  31)  ---------------------------------------


    POTLOK:  cpu time    0.69: real time    0.69
    SETDIJ:  cpu time    0.00: real time    0.00
    EDDIAG:  cpu time    0.05: real time    0.05
  RMM-DIIS:  cpu time    0.18: real time    0.18
    ORTHCH:  cpu time    0.00: real time    0.00
       DOS:  cpu time    0.00: real time    0.00
    CHARGE:  cpu time    0.07: real time    0.07
    MIXING:  cpu time    0.09: real time    0.10
    --------------------------------------------
      LOOP:  cpu time    1.08: real time    1.08

 eigenvalue-minimisations  :    14
 total energy-change (2. order) : 0.1980310E-02  (-0.1656452E-04)
 number of electron      10.0000047 magnetization 
 augmentation part        0.5151732 magnetization 

 Broyden mixing:
  rms(total) = 0.10846E+00    rms(broyden)= 0.10844E+00
  rms(prec ) = 0.18305E+00
  weight for this iteration     100.00

 eigenvalues of (default mixing * dielectric matrix)
  average eigenvalue GAMMA=   1.3583
  4.4702  4.4702  3.1824  3.1824  2.5954  1.8679  1.8679  1.4628  1.4628  0.9687
  0.9687  0.8054  0.8054  0.7186  0.7186  0.8411  0.8411  0.3016  0.3016  0.6877
  0.6877  0.1358  0.5576  0.5576  0.4278  0.4278

 Free energy of the ion-electron system (eV)
  ---------------------------------------------------
  alpha Z        PSCENC =         0.40002888
  Ewald energy   TEWEN  =       -92.89090762
  -1/2 Hartree   DENC   =      -406.92549075
  -exchange  EXHF       =         0.00000000
  -V(xc)+E(xc)   XCENC  =        36.76080995
  PAW double counting   =       470.18860854     -472.52783267
  entropy T*S    EENTRO =        -0.40719113
  eigenvalues    EBANDS =      -115.28414272
  atomic energy  EATOM  =       579.39041991
  ---------------------------------------------------
  free energy    TOTEN  =        -1.29569761 eV

  energy without entropy =       -0.88850648  energy(sigma->0) =       -1.09210204


--------------------------------------------------------------------------------------------------------




----------------------------------------- Iteration    1(  32)  ---------------------------------------


    POTLOK:  cpu time    0.73: real time    0.73
    SETDIJ:  cpu time    0.00: real time    0.00
    EDDIAG:  cpu time    0.06: real time    0.06
  RMM-DIIS:  cpu time    0.16: real time    0.15
    ORTHCH:  cpu time    0.00: real time    0.00
       DOS:  cpu time    0.00: real time    0.00
    CHARGE:  cpu time    0.07: real time    0.07
    MIXING:  cpu time    0.09: real time    0.09
    --------------------------------------------
      LOOP:  cpu time    1.11: real time    1.11

 eigenvalue-minimisations  :    11
 total energy-change (2. order) :-0.3204427E-02  (-0.1105780E-04)
 number of electron      10.0000048 magnetization 
 augmentation part        0.5254586 magnetization 

 Broyden mixing:
  rms(total) = 0.16127E+00    rms(broyden)= 0.16126E+00
  rms(prec ) = 0.27098E+00
  weight for this iteration     100.00

 eigenvalues of (default mixing * dielectric matrix)
  average eigenvalue GAMMA=   1.3372
  5.1665  3.4393  3.1509  3.1509  2.5865  1.8660  1.8660  1.6905  1.6905  0.8929
  0.8929  0.8894  0.8894  0.7167  0.7167  0.8954  0.8954  0.3016  0.3016  0.1358
  0.6951  0.6951  0.6176  0.6176  0.4649  0.4399  0.4399

 Free energy of the ion-electron system (eV)
  ---------------------------------------------------
  alpha Z        PSCENC =         0.40002888
  Ewald energy   TEWEN  =       -92.89090762
  -1/2 Hartree   DENC   =      -406.86969476
  -exchange  EXHF       =         0.00000000
  -V(xc)+E(xc)   XCENC  =        36.75650642
  PAW double counting   =       470.01300339     -472.35110516
  entropy T*S    EENTRO =        -0.39577379
  eigenvalues    EBANDS =      -115.35137931
  atomic energy  EATOM  =       579.39041991
  ---------------------------------------------------
  free energy    TOTEN  =        -1.29890204 eV

  energy without entropy =       -0.90312824  energy(sigma->0) =       -1.10101514


--------------------------------------------------------------------------------------------------------




----------------------------------------- Iteration    1(  33)  ---------------------------------------


    POTLOK:  cpu time    0.72: real time    0.72
    SETDIJ:  cpu time    0.00: real time    0.00
    EDDIAG:  cpu time    0.05: real time    0.05
  RMM-DIIS:  cpu time    0.13: real time    0.13
    ORTHCH:  cpu time    0.00: real time    0.00
       DOS:  cpu time    0.00: real time    0.00
    CHARGE:  cpu time    0.06: real time    0.06
    MIXING:  cpu time    0.09: real time    0.09
    --------------------------------------------
      LOOP:  cpu time    1.06: real time    1.06

 eigenvalue-minimisations  :    11
 total energy-change (2. order) :-0.1021548E-02  (-0.8899091E-05)
 number of electron      10.0000049 magnetization 
 augmentation part        0.5306519 magnetization 

 Broyden mixing:
  rms(total) = 0.18759E+00    rms(broyden)= 0.18759E+00
  rms(prec ) = 0.31476E+00
  weight for this iteration     100.00

 eigenvalues of (default mixing * dielectric matrix)
  average eigenvalue GAMMA=   1.3642
  6.1016  3.1235  3.1235  2.9020  1.8857  1.8857  2.4074  2.1156  2.1156  1.0427
  1.0427  0.7138  0.7138  0.8287  0.8287  0.8649  0.8649  0.8080  0.8080  0.3016
  0.3016  0.6932  0.6932  0.1358  0.5023  0.5023  0.4457  0.4457

 Free energy of the ion-electron system (eV)
  ---------------------------------------------------
  alpha Z        PSCENC =         0.40002888
  Ewald energy   TEWEN  =       -92.89090762
  -1/2 Hartree   DENC   =      -406.82478532
  -exchange  EXHF       =         0.00000000
  -V(xc)+E(xc)   XCENC  =        36.75325023
  PAW double counting   =       469.86652494     -472.20391458
  entropy T*S    EENTRO =        -0.38997325
  eigenvalues    EBANDS =      -115.40056676
  atomic energy  EATOM  =       579.39041991
  ---------------------------------------------------
  free energy    TOTEN  =        -1.29992358 eV

  energy without entropy =       -0.90995033  energy(sigma->0) =       -1.10493696


--------------------------------------------------------------------------------------------------------




----------------------------------------- Iteration    1(  34)  ---------------------------------------


    POTLOK:  cpu time    0.73: real time    0.73
    SETDIJ:  cpu time    0.00: real time    0.00
    EDDIAG:  cpu time    0.05: real time    0.05
  RMM-DIIS:  cpu time    0.15: real time    0.15
    ORTHCH:  cpu time    0.00: real time    0.00
       DOS:  cpu time    0.00: real time    0.00
    CHARGE:  cpu time    0.07: real time    0.07
    MIXING:  cpu time    0.11: real time    0.11
    --------------------------------------------
      LOOP:  cpu time    1.12: real time    1.12

 eigenvalue-minimisations  :    11
 total energy-change (2. order) :-0.2618415E-02  (-0.4389017E-05)
 number of electron      10.0000050 magnetization 
 augmentation part        0.5394695 magnetization 

 Broyden mixing:
  rms(total) = 0.23263E+00    rms(broyden)= 0.23262E+00
  rms(prec ) = 0.39018E+00
  weight for this iteration     100.00

 eigenvalues of (default mixing * dielectric matrix)
  average eigenvalue GAMMA=   1.3295
  6.3640  3.1183  3.1183  2.7522  1.8906  1.8906  2.2527  2.2527  2.1617  1.0609
  1.0609  0.7137  0.7137  0.8208  0.8208  0.8571  0.8571  0.8079  0.8079  0.6877
  0.6877  0.3016  0.3016  0.1358  0.5065  0.5065  0.2264  0.4404  0.4404

 Free energy of the ion-electron system (eV)
  ---------------------------------------------------
  alpha Z        PSCENC =         0.40002888
  Ewald energy   TEWEN  =       -92.89090762
  -1/2 Hartree   DENC   =      -406.80729682
  -exchange  EXHF       =         0.00000000
  -V(xc)+E(xc)   XCENC  =        36.75313196
  PAW double counting   =       469.84923397     -472.18664217
  entropy T*S    EENTRO =        -0.37936130
  eigenvalues    EBANDS =      -115.43114880
  atomic energy  EATOM  =       579.39041991
  ---------------------------------------------------
  free energy    TOTEN  =        -1.30254200 eV

  energy without entropy =       -0.92318069  energy(sigma->0) =       -1.11286135


--------------------------------------------------------------------------------------------------------




----------------------------------------- Iteration    1(  35)  ---------------------------------------


    POTLOK:  cpu time    0.75: real time    0.75
    SETDIJ:  cpu time    0.00: real time    0.00
    EDDIAG:  cpu time    0.06: real time    0.06
  RMM-DIIS:  cpu time    0.15: real time    0.15
    ORTHCH:  cpu time    0.00: real time    0.00
       DOS:  cpu time    0.00: real time    0.00
    --------------------------------------------
      LOOP:  cpu time    0.97: real time    0.97

 eigenvalue-minimisations  :    11
 total energy-change (2. order) : 0.3007659E-05  (-0.1877607E-05)
 number of electron      10.0000050 magnetization 
 augmentation part        0.5394695 magnetization 

 Free energy of the ion-electron system (eV)
  ---------------------------------------------------
  alpha Z        PSCENC =         0.40002888
  Ewald energy   TEWEN  =       -92.89090762
  -1/2 Hartree   DENC   =      -406.80329626
  -exchange  EXHF       =         0.00000000
  -V(xc)+E(xc)   XCENC  =        36.75342852
  PAW double counting   =       469.83933495     -472.17673864
  entropy T*S    EENTRO =        -0.37693238
  eigenvalues    EBANDS =      -115.43787635
  atomic energy  EATOM  =       579.39041991
  ---------------------------------------------------
  free energy    TOTEN  =        -1.30253899 eV

  energy without entropy =       -0.92560661  energy(sigma->0) =       -1.11407280


--------------------------------------------------------------------------------------------------------




 average (electrostatic) potential at core
  the test charge radii are     0.6991  0.7215
  (the norm of the test charge is              1.0000)
       1 -64.1439       2 -81.1450
 
 
 
 E-fermi :  -6.7886     XC(G=0):  -0.8808     alpha+bet : -0.1603


 k-point   1 :       0.0000    0.0000    0.0000
  band No.  band energies     occupation 
      1     -21.7382      2.00000
      2     -15.2581      2.00000
      3      -7.0358      1.91951
      4      -6.9010      1.57337
      5      -6.9008      1.57232
      6      -6.6776      0.43241
      7      -6.6774      0.43166
      8      -6.5330      0.07074
      9      -0.5058      0.00000


--------------------------------------------------------------------------------------------------------


 soft charge-density along one line, spin component           1
         0         1         2         3         4         5         6         7         8         9
 total charge-density along one line
 
 pseudopotential strength for first ion, spin component:           1
 10.546  14.032   0.000   0.001   0.000  -0.000  -0.002  -0.000
 14.032  18.671   0.000   0.001   0.000  -0.000  -0.002  -0.000
  0.000   0.000  -4.691  -0.000   0.000   9.204   0.000  -0.000
  0.001   0.001  -0.000  -4.694  -0.000   0.000   9.209   0.000
  0.000   0.000   0.000  -0.000  -4.691  -0.000   0.000   9.204
 -0.000  -0.000   9.204   0.000  -0.000 -20.210  -0.000   0.000
 -0.002  -0.002   0.000   9.209   0.000  -0.000 -20.221  -0.000
 -0.000  -0.000  -0.000   0.000   9.204   0.000  -0.000 -20.210
 total augmentation occupancy for first ion, spin component:           1
  1.678   0.140   0.000  -0.011   0.000   0.000  -0.001   0.000
  0.140   0.012   0.000  -0.012   0.000   0.000  -0.000   0.000
  0.000   0.000   0.506   0.000   0.000   0.001   0.000   0.000
 -0.011  -0.012   0.000   0.499   0.000   0.000   0.002   0.000
  0.000   0.000   0.000   0.000   0.506   0.000   0.000   0.001
  0.000   0.000   0.001   0.000   0.000   0.000   0.000   0.000
 -0.001  -0.000   0.000   0.002   0.000   0.000   0.000   0.000
  0.000   0.000   0.000   0.000   0.001   0.000   0.000   0.000


------------------------ aborting loop because EDIFF is reached ----------------------------------------


    CHARGE:  cpu time    0.06: real time    0.06
    FORLOC:  cpu time    0.06: real time    0.06
    FORNL :  cpu time    0.04: real time    0.04
    STRESS:  cpu time    0.23: real time    0.23
    FORCOR:  cpu time    0.86: real time    0.86
    FORHAR:  cpu time    0.20: real time    0.20
    MIXING:  cpu time    0.11: real time    0.11

  FORCE on cell =-STRESS in cart. coord.  units (eV):
  Direction    XX          YY          ZZ          XY          YZ          ZX
  --------------------------------------------------------------------------------------
  Alpha Z     0.40003     0.40003     0.40003
  Ewald     -65.63512   -69.23888    41.98306    -0.00000     0.00000     0.00000
  Hartree   113.66946   110.17033   202.95053    -0.00000    -0.00000    -0.00000
  E(xc)     -40.30344   -40.30293   -40.26424     0.00000     0.00000    -0.00000
  Local    -173.19153  -166.12442  -370.48494    -0.00000     0.00000    -0.00000
  n-local   -15.10990   -15.11531   -14.64033    -0.00000    -0.00000     0.00000
  augment     6.62184     6.62640     6.44127    -0.00000    -0.00000    -0.00000
  Kinetic   177.59150   177.64688   174.42608     0.00000    -0.00000    -0.00000
  Fock        0.00000     0.00000     0.00000     0.00000     0.00000     0.00000
  -------------------------------------------------------------------------------------
  Total       4.04284     4.06211     0.81146     0.00000     0.00000     0.00000
  in kB       5.92992     5.95819     1.19023     0.00000     0.00000     0.00000
  external pressure =        4.36 kB  Pullay stress =        0.00 kB


 VOLUME and BASIS-vectors are now :
 -----------------------------------------------------------------------------
  energy-cutoff  :      400.00
  volume of cell :     1092.32
      direct lattice vectors                 reciprocal lattice vectors
    10.100000000  0.000000000  0.000000000     0.099009901  0.000000000  0.000000000
     0.000000000 10.300000000  0.000000000     0.000000000  0.097087379  0.000000000
     0.000000000  0.000000000 10.500000000     0.000000000  0.000000000  0.095238095

  length of vectors
    10.100000000 10.300000000 10.500000000     0.099009901  0.097087379  0.095238095


 FORCES acting on ions
    electron-ion (+dipol)            ewald-force                    non-local-force                 convergence-correction
 -----------------------------------------------------------------------------------------------
   0.608E-14 0.246E-14 0.210E+02   0.340E-17 0.333E-16 -.206E+02   0.000E+00 0.000E+00 0.128E+01   -.143E-11 -.786E-12 -.114E+01
   0.591E-14 0.175E-13 -.176E+02   0.281E-16 -.190E-16 0.206E+02   0.000E+00 0.000E+00 -.184E+01   0.246E-11 0.243E-11 -.167E+01
 -----------------------------------------------------------------------------------------------
   0.120E-13 0.199E-13 0.336E+01   0.315E-16 0.144E-16 0.000E+00   0.000E+00 0.000E+00 -.558E+00   0.103E-11 0.165E-11 -.281E+01
 
 
 POSITION                                       TOTAL-FORCE (eV/Angst)
 -----------------------------------------------------------------------------------
      0.00000      0.00000      0.00000         0.000000      0.000000      0.579364
      0.00000      0.00000      3.60000         0.000000      0.000000     -0.579364
 -----------------------------------------------------------------------------------
    total drift:                                0.000000      0.000000     -0.005881


--------------------------------------------------------------------------------------------------------



  FREE ENERGIE OF THE ION-ELECTRON SYSTEM (eV)
  ---------------------------------------------------
  free  energy   TOTEN  =        -1.30253899 eV

  energy  without entropy=       -0.92560661  energy(sigma->0) =       -1.11407280
 


--------------------------------------------------------------------------------------------------------


    POTLOK:  cpu time    0.75: real time    0.75


--------------------------------------------------------------------------------------------------------


     LOOP+:  cpu time   37.58: real time   37.62
    4ORBIT:  cpu time    0.00: real time    0.00

 total amount of memory used by VASP on root node   140193. kBytes
========================================================================

   base      :      30000. kBytes
   nonl-proj :       3171. kBytes
   fftplans  :      37440. kBytes
   grid      :      66720. kBytes
   one-center:          6. kBytes
   wavefun   :       2856. kBytes
 
  
  
 General timing and accounting informations for this job:
 ========================================================
  
                  Total CPU time used (sec):       39.024
                            User time (sec):       38.704
                          System time (sec):        0.320
                         Elapsed time (sec):       39.056
  
                   Maximum memory used (kb):      240572.
                   Average memory used (kb):           0.
  
                          Minor page faults:       126121
                          Major page faults:            0
                 Voluntary context switches:            0
