 vasp.5.3.3 18Dez12 (build Sep  7 2015 22:32:56) complex                        
  
 executed on             LinuxIFC date 2002.02.05  01:13:54
 running on    1 total cores
 distrk:  each k-point on    1 cores,    1 groups
 distr:  one band on NCORES_PER_BAND=   1 cores,    1 groups


--------------------------------------------------------------------------------------------------------


 INCAR:
 POTCAR:    PAW_PBE C 08Apr2002                   
 POTCAR:    PAW_PBE O 08Apr2002                   
 POTCAR:    PAW_PBE C 08Apr2002                   
   VRHFIN =C: s2p2                                                              
   LEXCH  = PE                                                                  
   EATOM  =   147.1560 eV,   10.8157 Ry                                         
                                                                                
   TITEL  = PAW_PBE C 08Apr2002                                                 
   LULTRA =        F    use ultrasoft PP ?                                      
   IUNSCR =        1    unscreen: 0-lin 1-nonlin 2-no                           
   RPACOR =    1.200    partial core radius                                     
   POMASS =   12.011; ZVAL   =    4.000    mass and valenz                      
   RCORE  =    1.500    outmost cutoff radius                                   
   RWIGS  =    1.630; RWIGS  =    0.863    wigner-seitz radius (au A)           
   ENMAX  =  400.000; ENMIN  =  300.000 eV                                      
   ICORE  =        2    local potential                                         
   LCOR   =        T    correct aug charges                                     
   LPAW   =        T    paw PP                                                  
   EAUG   =  644.873                                                            
   DEXC   =    0.000                                                            
   RMAX   =    1.529    core radius for proj-oper                               
   RAUG   =    1.300    factor for augmentation sphere                          
   RDEP   =    1.501    radius for radial grids                                 
   RDEPT  =    1.300    core radius for aug-charge                              
                                                                                
   Atomic configuration                                                         
    4 entries                                                                   
     n  l   j            E        occ.                                          
     1  0  0.50      -273.3789   2.0000                                         
     2  0  0.50       -13.7508   2.0000                                         
     2  1  0.50        -5.2854   2.0000                                         
     3  2  1.50        -5.4423   0.0000                                         
   Description                                                                  
     l       E           TYP  RCUT    TYP  RCUT                                 
     0    -13.7508458     23  1.200                                             
     0     -8.2022199     23  1.200                                             
     1     -5.2854383     23  1.500                                             
     1     34.0145650     23  1.500                                             
     2     -5.4423304      7  1.500                                             
  local pseudopotential read in
  partial core-charges read in
  partial kinetic energy density read in
  atomic valenz-charges read in
  non local Contribution for L=           0  read in
    real space projection operators read in
  non local Contribution for L=           0  read in
    real space projection operators read in
  non local Contribution for L=           1  read in
    real space projection operators read in
  non local Contribution for L=           1  read in
    real space projection operators read in
    PAW grid and wavefunctions read in
 
   number of l-projection  operators is LMAX  =           4
   number of lm-projection operators is LMMAX =           8
 
 POTCAR:    PAW_PBE O 08Apr2002                   
   VRHFIN =O: s2p4                                                              
   LEXCH  = PE                                                                  
   EATOM  =   432.3788 eV,   31.7789 Ry                                         
                                                                                
   TITEL  = PAW_PBE O 08Apr2002                                                 
   LULTRA =        F    use ultrasoft PP ?                                      
   IUNSCR =        1    unscreen: 0-lin 1-nonlin 2-no                           
   RPACOR =    1.200    partial core radius                                     
   POMASS =   16.000; ZVAL   =    6.000    mass and valenz                      
   RCORE  =    1.520    outmost cutoff radius                                   
   RWIGS  =    1.550; RWIGS  =    0.820    wigner-seitz radius (au A)           
   ENMAX  =  400.000; ENMIN  =  300.000 eV                                      
   ICORE  =        2    local potential                                         
   LCOR   =        T    correct aug charges                                     
   LPAW   =        T    paw PP                                                  
   EAUG   =  605.392                                                            
   DEXC   =    0.000                                                            
   RMAX   =    1.553    core radius for proj-oper                               
   RAUG   =    1.300    factor for augmentation sphere                          
   RDEP   =    1.550    radius for radial grids                                 
   RDEPT  =    1.329    core radius for aug-charge                              
                                                                                
   Atomic configuration                                                         
    4 entries                                                                   
     n  l   j            E        occ.                                          
     1  0  0.50      -514.6923   2.0000                                         
     2  0  0.50       -23.9615   2.0000                                         
     2  1  0.50        -9.0305   4.0000                                         
     3  2  1.50        -9.5241   0.0000                                         
   Description                                                                  
     l       E           TYP  RCUT    TYP  RCUT                                 
     0    -23.9615318     23  1.200                                             
     0     -9.5240782     23  1.200                                             
     1     -9.0304911     23  1.520                                             
     1      8.1634956     23  1.520                                             
     2     -9.5240782      7  1.500                                             
  local pseudopotential read in
  partial core-charges read in
  partial kinetic energy density read in
  kinetic energy density of atom read in
  atomic valenz-charges read in
  non local Contribution for L=           0  read in
    real space projection operators read in
  non local Contribution for L=           0  read in
    real space projection operators read in
  non local Contribution for L=           1  read in
    real space projection operators read in
  non local Contribution for L=           1  read in
    real space projection operators read in
    PAW grid and wavefunctions read in
 
   number of l-projection  operators is LMAX  =           4
   number of lm-projection operators is LMMAX =           8
 
  PAW_PBE C 08Apr2002                   :
 energy of atom  1       EATOM= -147.1560
 kinetic energy error for atom=    0.0288 (will be added to EATOM!!)
  PAW_PBE O 08Apr2002                   :
 energy of atom  2       EATOM= -432.3788
 kinetic energy error for atom=    0.1156 (will be added to EATOM!!)
 
 
 POSCAR: CO molecule in a box                    
  positions in cartesian coordinates
  No initial velocities read in
 exchange correlation table for  LEXCH =        8
   RHO(1)=    0.500       N(1)  =     2000
   RHO(2)=  100.500       N(2)  =     4000
 


--------------------------------------------------------------------------------------------------------


 ion  position               nearest neighbor table
   1  0.000  0.000  0.000-
   2  0.000  0.000  0.381-
 
  LATTYP: Found a simple orthorhombic cell.
 ALAT       =    10.1000000000
 B/A-ratio  =     1.0198019802
 C/A-ratio  =     1.0396039604
  
  Lattice vectors:
  
 A1 = (  10.1000000000,   0.0000000000,   0.0000000000)
 A2 = (   0.0000000000,  10.3000000000,   0.0000000000)
 A3 = (   0.0000000000,   0.0000000000,  10.5000000000)


Analysis of symmetry for initial positions (statically):
=====================================================================
 Subroutine PRICEL returns:
 Original cell was already a primitive cell.
 

 Routine SETGRP: Setting up the symmetry group for a 
 simple orthorhombic supercell.


 Subroutine GETGRP returns: Found  4 space group operations
 (whereof  4 operations were pure point group operations)
 out of a pool of  8 trial point group operations.


The static configuration has the point symmetry C_2v.


Analysis of symmetry for dynamics (positions and initial velocities):
=====================================================================
 Subroutine PRICEL returns:
 Original cell was already a primitive cell.
 

 Routine SETGRP: Setting up the symmetry group for a 
 simple orthorhombic supercell.


 Subroutine GETGRP returns: Found  4 space group operations
 (whereof  4 operations were pure point group operations)
 out of a pool of  8 trial point group operations.


The dynamic configuration has the point symmetry C_2v.


Analysis of constrained symmetry for selective dynamics:
=====================================================================
 Subroutine PRICEL returns:
 Original cell was already a primitive cell.
 

 Routine SETGRP: Setting up the symmetry group for a 
 simple orthorhombic supercell.


 Subroutine GETGRP returns: Found  4 space group operations
 (whereof  4 operations were pure point group operations)
 out of a pool of  8 trial point group operations.


The constrained configuration has the point symmetry C_2v.


 irot  :   1
 --------------------------------------------------------------------
 isymop:   1   0   0
           0   1   0
           0   0   1

 gtrans:     0.0000000     0.0000000     0.0000000

 ptrans:     0.0000000     0.0000000     0.0000000
 rotmap:
 (   1->   1)  (   2->   2) 


 irot  :   2
 --------------------------------------------------------------------
 isymop:  -1   0   0
           0  -1   0
           0   0   1

 gtrans:     0.0000000     0.0000000     0.0000000

 ptrans:     0.0000000     0.0000000     0.0000000
 rotmap:
 (   1->   1)  (   2->   2) 


 irot  :   3
 --------------------------------------------------------------------
 isymop:   1   0   0
           0  -1   0
           0   0   1

 gtrans:     0.0000000     0.0000000     0.0000000

 ptrans:     0.0000000     0.0000000     0.0000000
 rotmap:
 (   1->   1)  (   2->   2) 


 irot  :   4
 --------------------------------------------------------------------
 isymop:  -1   0   0
           0   1   0
           0   0   1

 gtrans:     0.0000000     0.0000000     0.0000000

 ptrans:     0.0000000     0.0000000     0.0000000
 rotmap:
 (   1->   1)  (   2->   2) 
 
 
 KPOINTS: Gamma-point only                        

Automatic generation of k-mesh.
Space group operators:
 irot       det(A)        alpha          n_x          n_y          n_z        tau_x        tau_y        tau_z
    1     1.000000     0.000000     1.000000     0.000000     0.000000     0.000000     0.000000     0.000000
    2     1.000000   180.000000     0.000000     0.000000     1.000000     0.000000     0.000000     0.000000
    3    -1.000000   180.000000     0.000000     1.000000     0.000000     0.000000     0.000000     0.000000
    4    -1.000000   180.000000     1.000000     0.000000     0.000000     0.000000     0.000000     0.000000
 
 Subroutine IBZKPT returns following result:
 ===========================================
 
 Found      1 irreducible k-points:
 
 Following reciprocal coordinates:
            Coordinates               Weight
  0.000000  0.000000  0.000000      1.000000
 
 Following cartesian coordinates:
            Coordinates               Weight
  0.000000  0.000000  0.000000      1.000000
 


--------------------------------------------------------------------------------------------------------




 Dimension of arrays:
   k-points           NKPTS =      1   k-points in BZ     NKDIM =      1   number of bands    NBANDS=      9
   number of dos      NEDOS =    301   number of ions     NIONS =      2
   non local maximal  LDIM  =      4   non local SUM 2l+1 LMDIM =      8
   total plane-waves  NPLWV = 135000
   max r-space proj   IRMAX =      1   max aug-charges    IRDMAX=   1803
   dimension x,y,z NGX =    50 NGY =   50 NGZ =   54
   dimension x,y,z NGXF=   100 NGYF=  100 NGZF=  108
   support grid    NGXF=   100 NGYF=  100 NGZF=  108
   ions per type =               1   1
 NGX,Y,Z   is equivalent  to a cutoff of   8.23,  8.07,  8.55 a.u.
 NGXF,Y,Z  is equivalent  to a cutoff of  16.46, 16.14, 17.10 a.u.


 I would recommend the setting:
   dimension x,y,z NGX =    49 NGY =   50 NGZ =   51
 SYSTEM =  Hello World                             
 POSCAR =  CO molecule in a box                    

 Startparameter for this run:
   NWRITE =      2    write-flag & timer
   PREC   = normal    normal or accurate (medium, high low for compatibility)
   ISTART =      0    job   : 0-new  1-cont  2-samecut
   ICHARG =      2    charge: 1-file 2-atom 10-const
   ISPIN  =      1    spin polarized calculation?
   LNONCOLLINEAR =      F non collinear calculations
   LSORBIT =      F    spin-orbit coupling
   INIWAV =      1    electr: 0-lowe 1-rand  2-diag
   LASPH  =      F    aspherical Exc in radial PAW
   METAGGA=      F    non-selfconsistent MetaGGA calc.

 Electronic Relaxation 1
   ENCUT  =  400.0 eV  29.40 Ry    5.42 a.u.  16.47 16.80 17.12*2*pi/ulx,y,z
   ENINI  =  400.0     initial cutoff
   ENAUG  =  644.9 eV  augmentation charge cutoff
   NELM   =     60;   NELMIN=  2; NELMDL=  0     # of ELM steps 
   EDIFF  = 0.1E-03   stopping-criterion for ELM
   LREAL  =      F    real-space projection
   NLSPLINE    = F    spline interpolate recip. space projectors
   LCOMPAT=      F    compatible to vasp.4.4
   GGA_COMPAT  = T    GGA compatible to vasp.4.4-vasp.4.6
   LMAXPAW     = -100 max onsite density
   LMAXMIX     =    2 max onsite mixed and CHGCAR
   VOSKOWN=      0    Vosko Wilk Nusair interpolation
   ROPT   =    0.00000   0.00000
 Ionic relaxation
   EDIFFG = -.1E-01   stopping-criterion for IOM
   NSW    =      0    number of steps for IOM
   NBLOCK =      1;   KBLOCK =      1    inner block; outer block 
   IBRION =     -1    ionic relax: 0-MD 1-quasi-New 2-CG
   NFREE  =      0    steps in history (QN), initial steepest desc. (CG)
   ISIF   =      2    stress and relaxation
   IWAVPR =     10    prediction:  0-non 1-charg 2-wave 3-comb
   ISYM   =      2    0-nonsym 1-usesym 2-fastsym
   LCORR  =      T    Harris-Foulkes like correction to forces

   POTIM  = 0.5000    time-step for ionic-motion
   TEIN   =    0.0    initial temperature
   TEBEG  =    0.0;   TEEND  =   0.0 temperature during run
   SMASS  =  -3.00    Nose mass-parameter (am)
   estimated Nose-frequenzy (Omega)   =  0.10E-29 period in steps =****** mass=  -0.233E-26a.u.
   SCALEE = 1.0000    scale energy and forces
   NPACO  =    256;   APACO  = 16.0  distance and # of slots for P.C.
   PSTRESS=    0.0 pullay stress

  Mass of Ions in am
   POMASS =  12.01 16.00
  Ionic Valenz
   ZVAL   =   4.00  6.00
  Atomic Wigner-Seitz radii
   RWIGS  =  -1.00 -1.00
  virtual crystal weights 
   VCA    =   1.00  1.00
   NELECT =      10.0000    total number of electrons
   NUPDOWN=      -1.0000    fix difference up-down

 DOS related values:
   EMIN   =  10.00;   EMAX   =-10.00  energy-range for DOS
   EFERMI =   0.00
   ISMEAR =     0;   SIGMA  =   0.20  broadening in eV -4-tet -1-fermi 0-gaus

 Electronic relaxation 2 (details)
   IALGO  =     68    algorithm
   LDIAG  =      T    sub-space diagonalisation (order eigenvalues)
   LSUBROT=      T    optimize rotation matrix (better conditioning)
   TURBO    =      0    0=normal 1=particle mesh
   IRESTART =      0    0=no restart 2=restart with 2 vectors
   NREBOOT  =      0    no. of reboots
   NMIN     =      0    reboot dimension
   EREF     =   0.00    reference energy to select bands
   IMIX   =      4    mixing-type and parameters
     AMIX     =   0.40;   BMIX     =  1.00
     AMIX_MAG =   1.60;   BMIX_MAG =  1.00
     AMIN     =   0.10
     WC   =   100.;   INIMIX=   1;  MIXPRE=   1;  MAXMIX= -45

 Intra band minimization:
   WEIMIN = 0.0000     energy-eigenvalue tresh-hold
   EBREAK =  0.28E-05  absolut break condition
   DEPER  =   0.30     relativ break condition  

   TIME   =   0.40     timestep for ELM

  volume/ion in A,a.u.               =     546.16      3685.65
  Fermi-wavevector in a.u.,A,eV,Ry     =   0.342472  0.647179  1.595791  0.117287
  Thomas-Fermi vector in A             =   1.247862
 
 Write flags
   LWAVE  =      F    write WAVECAR
   LCHARG =      F    write CHGCAR
   LVTOT  =      F    write LOCPOT, total local potential
   LVHAR  =      F    write LOCPOT, Hartree potential only
   LELF   =      F    write electronic localiz. function (ELF)
   LORBIT =      0    0 simple, 1 ext, 2 COOP (PROOUT)


 Dipole corrections
   LMONO  =      F    monopole corrections only (constant potential shift)
   LDIPOL =      F    correct potential (dipole corrections)
   IDIPOL =      0    1-x, 2-y, 3-z, 4-all directions 
   EPSILON=  1.0000000 bulk dielectric constant

 Exchange correlation treatment:
   GGA     =    --    GGA type
   LEXCH   =     8    internal setting for exchange type
   VOSKOWN=      0    Vosko Wilk Nusair interpolation
   LHFCALC =     F    Hartree Fock is set to
   LHFONE  =     F    Hartree Fock one center treatment
   AEXX    =    0.0000 exact exchange contribution

 Linear response parameters
   LEPSILON=     F    determine dielectric tensor
   LRPA    =     F    only Hartree local field effects (RPA)
   LNABLA  =     F    use nabla operator in PAW spheres
   LVEL    =     F    velocity operator in full k-point grid
   LINTERFAST=   F  fast interpolation
   KINTER  =     0    interpolate to denser k-point grid
   CSHIFT  =0.1000    complex shift for real part using Kramers Kronig
   OMEGAMAX=  -1.0    maximum frequency
   DEG_THRESHOLD= 0.2000000E-02 threshold for treating states as degnerate
   RTIME   =    0.100 relaxation time in fs

 Orbital magnetization related:
   ORBITALMAG=     F  switch on orbital magnetization
   LCHIMAG   =     F  perturbation theory with respect to B field
   DQ        =  0.001000  dq finite difference perturbation B field



--------------------------------------------------------------------------------------------------------


 Static calculation
 charge density and potential will be updated during run
 non-spin polarized calculation
 RMM-DIIS sequential band-by-band and
  variant of blocked Davidson during initial phase
 perform sub-space diagonalisation
    before iterative eigenvector-optimisation
 modified Broyden-mixing scheme, WC =      100.0
 initial mixing is a Kerker type mixing with AMIX =  0.4000 and BMIX =      1.0000
 Hartree-type preconditioning will be used
 using additional bands            4
 reciprocal scheme for non local part
 use partial core corrections
 calculate Harris-corrections to forces 
   (improved forces if not selfconsistent)
 use gradient corrections 
 use of overlap-Matrix (Vanderbilt PP)
 Gauss-broadening in eV      SIGMA  =   0.20


--------------------------------------------------------------------------------------------------------


  energy-cutoff  :      400.00
  volume of cell :     1092.32
      direct lattice vectors                 reciprocal lattice vectors
    10.100000000  0.000000000  0.000000000     0.099009901  0.000000000  0.000000000
     0.000000000 10.300000000  0.000000000     0.000000000  0.097087379  0.000000000
     0.000000000  0.000000000 10.500000000     0.000000000  0.000000000  0.095238095

  length of vectors
    10.100000000 10.300000000 10.500000000     0.099009901  0.097087379  0.095238095


 
 k-points in units of 2pi/SCALE and weight: Gamma-point only                        
   0.00000000  0.00000000  0.00000000       1.000
 
 k-points in reciprocal lattice and weights: Gamma-point only                        
   0.00000000  0.00000000  0.00000000       1.000
 
 position of ions in fractional coordinates (direct lattice) 
   0.00000000  0.00000000  0.00000000
   0.00000000  0.00000000  0.38095238
 
 position of ions in cartesian coordinates  (Angst):
   0.00000000  0.00000000  0.00000000
   0.00000000  0.00000000  4.00000000
 


--------------------------------------------------------------------------------------------------------


 k-point  1 :   0.0000 0.0000 0.0000  plane waves:   19819

 maximum and minimum number of plane-waves per node :     19819    19819

 maximum number of plane-waves:     19819
 maximum index in each direction: 
   IXMAX=   16   IYMAX=   16   IZMAX=   17
   IXMIN=  -16   IYMIN=  -16   IZMIN=  -17

 WARNING: aliasing errors must be expected set NGX to  66 to avoid them
 WARNING: aliasing errors must be expected set NGY to  66 to avoid them
 WARNING: aliasing errors must be expected set NGZ to  70 to avoid them
 aliasing errors are usually negligible using standard VASP settings
 and one can safely disregard these warnings

 serial   3D FFT for wavefunctions
 parallel 3D FFT for charge:
    minimum data exchange during FFTs selected (reduces bandwidth)


 total amount of memory used by VASP on root node   140193. kBytes
========================================================================

   base      :      30000. kBytes
   nonl-proj :       3171. kBytes
   fftplans  :      37440. kBytes
   grid      :      66720. kBytes
   one-center:          6. kBytes
   wavefun   :       2856. kBytes
 
 Broyden mixing: mesh for mixing (old mesh)
   NGX = 33   NGY = 33   NGZ = 35
  (NGX  =100   NGY  =100   NGZ  =108)
  gives a total of  38115 points

 initial charge density was supplied:
 charge density of overlapping atoms calculated
 number of electron      10.0000000 magnetization 
 keeping initial charge density in first step


--------------------------------------------------------------------------------------------------------


 Maximum index for augmentation-charges         1555 (set IRDMAX)


--------------------------------------------------------------------------------------------------------


 First call to EWALD:  gamma=   0.172
 Maximum number of real-space cells 3x 3x 3
 Maximum number of reciprocal cells 3x 3x 3

 FEWALD executed in parallel
    FEWALD:  cpu time    0.00: real time    0.00


----------------------------------------- Iteration    1(   1)  ---------------------------------------


    POTLOK:  cpu time    0.81: real time    0.81
    SETDIJ:  cpu time    0.00: real time    0.00
     EDDAV:  cpu time    0.35: real time    0.35
       DOS:  cpu time    0.00: real time    0.00
    --------------------------------------------
      LOOP:  cpu time    1.16: real time    1.16

 eigenvalue-minimisations  :    26
 total energy-change (2. order) : 0.5223948E+02  (-0.1925190E+03)
 number of electron      10.0000000 magnetization 
 augmentation part       10.0000000 magnetization 

 Free energy of the ion-electron system (eV)
  ---------------------------------------------------
  alpha Z        PSCENC =         0.40002888
  Ewald energy   TEWEN  =       -99.81342255
  -1/2 Hartree   DENC   =      -393.96264457
  -exchange  EXHF       =         0.00000000
  -V(xc)+E(xc)   XCENC  =        36.69210069
  PAW double counting   =       455.07152327     -457.43959975
  entropy T*S    EENTRO =        -0.00052491
  eigenvalues    EBANDS =       -68.09840160
  atomic energy  EATOM  =       579.39041991
  ---------------------------------------------------
  free energy    TOTEN  =        52.23947939 eV

  energy without entropy =       52.24000430  energy(sigma->0) =       52.23974184


--------------------------------------------------------------------------------------------------------




----------------------------------------- Iteration    1(   2)  ---------------------------------------


     EDDAV:  cpu time    0.44: real time    0.44
       DOS:  cpu time    0.00: real time    0.00
    --------------------------------------------
      LOOP:  cpu time    0.44: real time    0.44

 eigenvalue-minimisations  :    35
 total energy-change (2. order) :-0.4417208E+02  (-0.4392522E+02)
 number of electron      10.0000000 magnetization 
 augmentation part       10.0000000 magnetization 

 Free energy of the ion-electron system (eV)
  ---------------------------------------------------
  alpha Z        PSCENC =         0.40002888
  Ewald energy   TEWEN  =       -99.81342255
  -1/2 Hartree   DENC   =      -393.96264457
  -exchange  EXHF       =         0.00000000
  -V(xc)+E(xc)   XCENC  =        36.69210069
  PAW double counting   =       455.07152327     -457.43959975
  entropy T*S    EENTRO =        -0.00000000
  eigenvalues    EBANDS =      -112.27100433
  atomic energy  EATOM  =       579.39041991
  ---------------------------------------------------
  free energy    TOTEN  =         8.06740156 eV

  energy without entropy =        8.06740156  energy(sigma->0) =        8.06740156


--------------------------------------------------------------------------------------------------------




----------------------------------------- Iteration    1(   3)  ---------------------------------------


     EDDAV:  cpu time    0.24: real time    0.24
       DOS:  cpu time    0.00: real time    0.00
    --------------------------------------------
      LOOP:  cpu time    0.24: real time    0.24

 eigenvalue-minimisations  :    20
 total energy-change (2. order) :-0.1481182E+02  (-0.1481034E+02)
 number of electron      10.0000000 magnetization 
 augmentation part       10.0000000 magnetization 

 Free energy of the ion-electron system (eV)
  ---------------------------------------------------
  alpha Z        PSCENC =         0.40002888
  Ewald energy   TEWEN  =       -99.81342255
  -1/2 Hartree   DENC   =      -393.96264457
  -exchange  EXHF       =         0.00000000
  -V(xc)+E(xc)   XCENC  =        36.69210069
  PAW double counting   =       455.07152327     -457.43959975
  entropy T*S    EENTRO =        -0.00000000
  eigenvalues    EBANDS =      -127.08282158
  atomic energy  EATOM  =       579.39041991
  ---------------------------------------------------
  free energy    TOTEN  =        -6.74441569 eV

  energy without entropy =       -6.74441569  energy(sigma->0) =       -6.74441569


--------------------------------------------------------------------------------------------------------




----------------------------------------- Iteration    1(   4)  ---------------------------------------


     EDDAV:  cpu time    0.23: real time    0.23
       DOS:  cpu time    0.00: real time    0.00
    --------------------------------------------
      LOOP:  cpu time    0.23: real time    0.23

 eigenvalue-minimisations  :    18
 total energy-change (2. order) :-0.7301316E+00  (-0.7299980E+00)
 number of electron      10.0000000 magnetization 
 augmentation part       10.0000000 magnetization 

 Free energy of the ion-electron system (eV)
  ---------------------------------------------------
  alpha Z        PSCENC =         0.40002888
  Ewald energy   TEWEN  =       -99.81342255
  -1/2 Hartree   DENC   =      -393.96264457
  -exchange  EXHF       =         0.00000000
  -V(xc)+E(xc)   XCENC  =        36.69210069
  PAW double counting   =       455.07152327     -457.43959975
  entropy T*S    EENTRO =        -0.00000000
  eigenvalues    EBANDS =      -127.81295322
  atomic energy  EATOM  =       579.39041991
  ---------------------------------------------------
  free energy    TOTEN  =        -7.47454732 eV

  energy without entropy =       -7.47454732  energy(sigma->0) =       -7.47454732


--------------------------------------------------------------------------------------------------------




----------------------------------------- Iteration    1(   5)  ---------------------------------------


     EDDAV:  cpu time    0.30: real time    0.30
       DOS:  cpu time    0.00: real time    0.00
    CHARGE:  cpu time    0.05: real time    0.05
    MIXING:  cpu time    0.02: real time    0.02
    --------------------------------------------
      LOOP:  cpu time    0.37: real time    0.37

 eigenvalue-minimisations  :    26
 total energy-change (2. order) :-0.1584616E-01  (-0.1584616E-01)
 number of electron      10.0000068 magnetization 
 augmentation part        0.7921218 magnetization 

 Broyden mixing:
  rms(total) = 0.14433E+01    rms(broyden)= 0.14428E+01
  rms(prec ) = 0.24371E+01
  weight for this iteration     100.00

 Free energy of the ion-electron system (eV)
  ---------------------------------------------------
  alpha Z        PSCENC =         0.40002888
  Ewald energy   TEWEN  =       -99.81342255
  -1/2 Hartree   DENC   =      -393.96264457
  -exchange  EXHF       =         0.00000000
  -V(xc)+E(xc)   XCENC  =        36.69210069
  PAW double counting   =       455.07152327     -457.43959975
  entropy T*S    EENTRO =        -0.00000000
  eigenvalues    EBANDS =      -127.82879938
  atomic energy  EATOM  =       579.39041991
  ---------------------------------------------------
  free energy    TOTEN  =        -7.49039349 eV

  energy without entropy =       -7.49039349  energy(sigma->0) =       -7.49039349


--------------------------------------------------------------------------------------------------------




----------------------------------------- Iteration    1(   6)  ---------------------------------------


    POTLOK:  cpu time    0.66: real time    0.66
    SETDIJ:  cpu time    0.00: real time    0.00
    EDDIAG:  cpu time    0.06: real time    0.05
  RMM-DIIS:  cpu time    0.25: real time    0.25
    ORTHCH:  cpu time    0.00: real time    0.00
       DOS:  cpu time    0.00: real time    0.00
    CHARGE:  cpu time    0.06: real time    0.06
    MIXING:  cpu time    0.02: real time    0.02
    --------------------------------------------
      LOOP:  cpu time    1.05: real time    1.05

 eigenvalue-minimisations  :    20
 total energy-change (2. order) :-0.3178305E+02  (-0.1998390E+01)
 number of electron       9.9999965 magnetization 
 augmentation part       -0.0293575 magnetization 

 Broyden mixing:
  rms(total) = 0.37333E+01    rms(broyden)= 0.37316E+01
  rms(prec ) = 0.60141E+01
  weight for this iteration     100.00

 eigenvalues of (default mixing * dielectric matrix)
  average eigenvalue GAMMA=   0.2763
  0.2763

 Free energy of the ion-electron system (eV)
  ---------------------------------------------------
  alpha Z        PSCENC =         0.40002888
  Ewald energy   TEWEN  =       -99.81342255
  -1/2 Hartree   DENC   =      -429.15197706
  -exchange  EXHF       =         0.00000000
  -V(xc)+E(xc)   XCENC  =        38.39048474
  PAW double counting   =       521.75263957     -524.51988728
  entropy T*S    EENTRO =        -0.00000000
  eigenvalues    EBANDS =      -125.72173405
  atomic energy  EATOM  =       579.39041991
  ---------------------------------------------------
  free energy    TOTEN  =       -39.27344784 eV

  energy without entropy =      -39.27344784  energy(sigma->0) =      -39.27344784


--------------------------------------------------------------------------------------------------------




----------------------------------------- Iteration    1(   7)  ---------------------------------------


    POTLOK:  cpu time    0.69: real time    0.69
    SETDIJ:  cpu time    0.00: real time    0.00
    EDDIAG:  cpu time    0.05: real time    0.05
  RMM-DIIS:  cpu time    0.21: real time    0.21
    ORTHCH:  cpu time    0.00: real time    0.00
       DOS:  cpu time    0.00: real time    0.00
    CHARGE:  cpu time    0.06: real time    0.06
    MIXING:  cpu time    0.02: real time    0.02
    --------------------------------------------
      LOOP:  cpu time    1.04: real time    1.04

 eigenvalue-minimisations  :    19
 total energy-change (2. order) : 0.3814382E+02  (-0.1071621E+01)
 number of electron      10.0000029 magnetization 
 augmentation part        0.4080576 magnetization 

 Broyden mixing:
  rms(total) = 0.50834E+00    rms(broyden)= 0.50546E+00
  rms(prec ) = 0.69628E+00
  weight for this iteration     100.00

 eigenvalues of (default mixing * dielectric matrix)
  average eigenvalue GAMMA=   0.2985
  0.2985  0.2985

 Free energy of the ion-electron system (eV)
  ---------------------------------------------------
  alpha Z        PSCENC =         0.40002888
  Ewald energy   TEWEN  =       -99.81342255
  -1/2 Hartree   DENC   =      -405.64425624
  -exchange  EXHF       =         0.00000000
  -V(xc)+E(xc)   XCENC  =        37.34103623
  PAW double counting   =       481.47446632     -484.01365558
  entropy T*S    EENTRO =        -0.51630834
  eigenvalues    EBANDS =      -109.74793307
  atomic energy  EATOM  =       579.39041991
  ---------------------------------------------------
  free energy    TOTEN  =        -1.12962444 eV

  energy without entropy =       -0.61331609  energy(sigma->0) =       -0.87147027


--------------------------------------------------------------------------------------------------------




----------------------------------------- Iteration    1(   8)  ---------------------------------------


    POTLOK:  cpu time    0.64: real time    0.65
    SETDIJ:  cpu time    0.00: real time    0.00
    EDDIAG:  cpu time    0.06: real time    0.06
  RMM-DIIS:  cpu time    0.27: real time    0.27
    ORTHCH:  cpu time    0.00: real time    0.00
       DOS:  cpu time    0.00: real time    0.00
    CHARGE:  cpu time    0.07: real time    0.07
    MIXING:  cpu time    0.02: real time    0.02
    --------------------------------------------
      LOOP:  cpu time    1.07: real time    1.07

 eigenvalue-minimisations  :    22
 total energy-change (2. order) :-0.2203547E+00  (-0.5638288E-01)
 number of electron      10.0000056 magnetization 
 augmentation part        0.6437889 magnetization 

 Broyden mixing:
  rms(total) = 0.78233E+00    rms(broyden)= 0.78127E+00
  rms(prec ) = 0.14390E+01
  weight for this iteration     100.00

 eigenvalues of (default mixing * dielectric matrix)
  average eigenvalue GAMMA=   0.3658
  0.3264  0.3264  0.4446

 Free energy of the ion-electron system (eV)
  ---------------------------------------------------
  alpha Z        PSCENC =         0.40002888
  Ewald energy   TEWEN  =       -99.81342255
  -1/2 Hartree   DENC   =      -403.52608208
  -exchange  EXHF       =         0.00000000
  -V(xc)+E(xc)   XCENC  =        37.14922344
  PAW double counting   =       478.09351841     -480.58281625
  entropy T*S    EENTRO =        -0.20493466
  eigenvalues    EBANDS =      -112.25591420
  atomic energy  EATOM  =       579.39041991
  ---------------------------------------------------
  free energy    TOTEN  =        -1.34997910 eV

  energy without entropy =       -1.14504444  energy(sigma->0) =       -1.24751177


--------------------------------------------------------------------------------------------------------




----------------------------------------- Iteration    1(   9)  ---------------------------------------


    POTLOK:  cpu time    0.70: real time    0.70
    SETDIJ:  cpu time    0.00: real time    0.00
    EDDIAG:  cpu time    0.06: real time    0.06
  RMM-DIIS:  cpu time    0.24: real time    0.24
    ORTHCH:  cpu time    0.00: real time    0.00
       DOS:  cpu time    0.00: real time    0.00
    CHARGE:  cpu time    0.06: real time    0.06
    MIXING:  cpu time    0.02: real time    0.03
    --------------------------------------------
      LOOP:  cpu time    1.09: real time    1.09

 eigenvalue-minimisations  :    19
 total energy-change (2. order) :-0.3984544E+01  (-0.1095288E+00)
 number of electron      10.0000066 magnetization 
 augmentation part        0.7572001 magnetization 

 Broyden mixing:
  rms(total) = 0.13106E+01    rms(broyden)= 0.13104E+01
  rms(prec ) = 0.22752E+01
  weight for this iteration     100.00

 eigenvalues of (default mixing * dielectric matrix)
  average eigenvalue GAMMA=   1.4393
  3.4772  1.6558  0.3121  0.3121

 Free energy of the ion-electron system (eV)
  ---------------------------------------------------
  alpha Z        PSCENC =         0.40002888
  Ewald energy   TEWEN  =       -99.81342255
  -1/2 Hartree   DENC   =      -398.39190039
  -exchange  EXHF       =         0.00000000
  -V(xc)+E(xc)   XCENC  =        36.94595801
  PAW double counting   =       469.28056922     -471.72016152
  entropy T*S    EENTRO =        -0.00000000
  eigenvalues    EBANDS =      -121.42601502
  atomic energy  EATOM  =       579.39041991
  ---------------------------------------------------
  free energy    TOTEN  =        -5.33452347 eV

  energy without entropy =       -5.33452347  energy(sigma->0) =       -5.33452347


--------------------------------------------------------------------------------------------------------




----------------------------------------- Iteration    1(  10)  ---------------------------------------


    POTLOK:  cpu time    0.67: real time    0.67
    SETDIJ:  cpu time    0.00: real time    0.00
    EDDIAG:  cpu time    0.05: real time    0.05
  RMM-DIIS:  cpu time    0.22: real time    0.22
    ORTHCH:  cpu time    0.00: real time    0.00
       DOS:  cpu time    0.00: real time    0.00
    CHARGE:  cpu time    0.05: real time    0.05
    MIXING:  cpu time    0.03: real time    0.03
    --------------------------------------------
      LOOP:  cpu time    1.02: real time    1.02

 eigenvalue-minimisations  :    20
 total energy-change (2. order) :-0.6838301E+01  (-0.1373251E+00)
 number of electron      10.0000068 magnetization 
 augmentation part        0.8019710 magnetization 

 Broyden mixing:
  rms(total) = 0.15061E+01    rms(broyden)= 0.15061E+01
  rms(prec ) = 0.25668E+01
  weight for this iteration     100.00

 eigenvalues of (default mixing * dielectric matrix)
  average eigenvalue GAMMA=   1.3964
  4.2503  1.4564  0.3150  0.3150  0.6453

 Free energy of the ion-electron system (eV)
  ---------------------------------------------------
  alpha Z        PSCENC =         0.40002888
  Ewald energy   TEWEN  =       -99.81342255
  -1/2 Hartree   DENC   =      -394.72199174
  -exchange  EXHF       =         0.00000000
  -V(xc)+E(xc)   XCENC  =        37.00016260
  PAW double counting   =       471.73157888     -474.19146019
  entropy T*S    EENTRO =        -0.00000000
  eigenvalues    EBANDS =      -131.96814069
  atomic energy  EATOM  =       579.39041991
  ---------------------------------------------------
  free energy    TOTEN  =       -12.17282489 eV

  energy without entropy =      -12.17282489  energy(sigma->0) =      -12.17282489


--------------------------------------------------------------------------------------------------------




----------------------------------------- Iteration    1(  11)  ---------------------------------------


    POTLOK:  cpu time    0.70: real time    0.70
    SETDIJ:  cpu time    0.00: real time    0.00
    EDDIAG:  cpu time    0.06: real time    0.06
  RMM-DIIS:  cpu time    0.28: real time    0.29
    ORTHCH:  cpu time    0.00: real time    0.00
       DOS:  cpu time    0.00: real time    0.00
    CHARGE:  cpu time    0.06: real time    0.06
    MIXING:  cpu time    0.03: real time    0.03
    --------------------------------------------
      LOOP:  cpu time    1.14: real time    1.14

 eigenvalue-minimisations  :    22
 total energy-change (2. order) :-0.5722847E+01  (-0.5886870E-01)
 number of electron      10.0000069 magnetization 
 augmentation part        0.8239054 magnetization 

 Broyden mixing:
  rms(total) = 0.15999E+01    rms(broyden)= 0.15999E+01
  rms(prec ) = 0.27440E+01
  weight for this iteration     100.00

 eigenvalues of (default mixing * dielectric matrix)
  average eigenvalue GAMMA=   1.6316
  3.1762  3.1762  2.0536  0.3144  0.3144  0.7547

 Free energy of the ion-electron system (eV)
  ---------------------------------------------------
  alpha Z        PSCENC =         0.40002888
  Ewald energy   TEWEN  =       -99.81342255
  -1/2 Hartree   DENC   =      -394.71404695
  -exchange  EXHF       =         0.00000000
  -V(xc)+E(xc)   XCENC  =        37.27673257
  PAW double counting   =       486.22346786     -488.76439153
  entropy T*S    EENTRO =        -0.00000000
  eigenvalues    EBANDS =      -137.89445965
  atomic energy  EATOM  =       579.39041991
  ---------------------------------------------------
  free energy    TOTEN  =       -17.89567146 eV

  energy without entropy =      -17.89567146  energy(sigma->0) =      -17.89567146


--------------------------------------------------------------------------------------------------------




----------------------------------------- Iteration    1(  12)  ---------------------------------------


    POTLOK:  cpu time    0.76: real time    0.76
    SETDIJ:  cpu time    0.00: real time    0.00
    EDDIAG:  cpu time    0.06: real time    0.06
  RMM-DIIS:  cpu time    0.26: real time    0.25
    ORTHCH:  cpu time    0.00: real time    0.00
       DOS:  cpu time    0.00: real time    0.00
    CHARGE:  cpu time    0.06: real time    0.05
    MIXING:  cpu time    0.03: real time    0.03
    --------------------------------------------
      LOOP:  cpu time    1.17: real time    1.17

 eigenvalue-minimisations  :    20
 total energy-change (2. order) : 0.1081815E+02  (-0.1276637E+00)
 number of electron      10.0000068 magnetization 
 augmentation part        0.7887008 magnetization 

 Broyden mixing:
  rms(total) = 0.14308E+01    rms(broyden)= 0.14308E+01
  rms(prec ) = 0.24187E+01
  weight for this iteration     100.00

 eigenvalues of (default mixing * dielectric matrix)
  average eigenvalue GAMMA=   1.4811
  3.3523  3.3523  2.0998  0.7294  0.3145  0.3145  0.2051

 Free energy of the ion-electron system (eV)
  ---------------------------------------------------
  alpha Z        PSCENC =         0.40002888
  Ewald energy   TEWEN  =       -99.81342255
  -1/2 Hartree   DENC   =      -397.27416293
  -exchange  EXHF       =         0.00000000
  -V(xc)+E(xc)   XCENC  =        36.94560097
  PAW double counting   =       467.08237008     -469.52744762
  entropy T*S    EENTRO =        -0.00000000
  eigenvalues    EBANDS =      -124.28090514
  atomic energy  EATOM  =       579.39041991
  ---------------------------------------------------
  free energy    TOTEN  =        -7.07751840 eV

  energy without entropy =       -7.07751840  energy(sigma->0) =       -7.07751840


--------------------------------------------------------------------------------------------------------




----------------------------------------- Iteration    1(  13)  ---------------------------------------


    POTLOK:  cpu time    0.72: real time    0.71
    SETDIJ:  cpu time    0.00: real time    0.00
    EDDIAG:  cpu time    0.05: real time    0.05
  RMM-DIIS:  cpu time    0.34: real time    0.34
    ORTHCH:  cpu time    0.00: real time    0.00
       DOS:  cpu time    0.00: real time    0.00
    CHARGE:  cpu time    0.07: real time    0.07
    MIXING:  cpu time    0.03: real time    0.03
    --------------------------------------------
      LOOP:  cpu time    1.21: real time    1.21

 eigenvalue-minimisations  :    22
 total energy-change (2. order) : 0.1626398E+01  (-0.1406085E-01)
 number of electron      10.0000067 magnetization 
 augmentation part        0.7757413 magnetization 

 Broyden mixing:
  rms(total) = 0.13805E+01    rms(broyden)= 0.13805E+01
  rms(prec ) = 0.23419E+01
  weight for this iteration     100.00

 eigenvalues of (default mixing * dielectric matrix)
  average eigenvalue GAMMA=   1.6107
  3.8522  3.8522  2.1767  0.3144  0.3144  0.8362  0.7698  0.7698

 Free energy of the ion-electron system (eV)
  ---------------------------------------------------
  alpha Z        PSCENC =         0.40002888
  Ewald energy   TEWEN  =       -99.81342255
  -1/2 Hartree   DENC   =      -398.36490913
  -exchange  EXHF       =         0.00000000
  -V(xc)+E(xc)   XCENC  =        36.94397904
  PAW double counting   =       467.37901425     -469.82114478
  entropy T*S    EENTRO =        -0.00000000
  eigenvalues    EBANDS =      -121.56508598
  atomic energy  EATOM  =       579.39041991
  ---------------------------------------------------
  free energy    TOTEN  =        -5.45112035 eV

  energy without entropy =       -5.45112035  energy(sigma->0) =       -5.45112035


--------------------------------------------------------------------------------------------------------




----------------------------------------- Iteration    1(  14)  ---------------------------------------


    POTLOK:  cpu time    0.87: real time    0.88
    SETDIJ:  cpu time    0.01: real time    0.00
    EDDIAG:  cpu time    0.11: real time    0.11
  RMM-DIIS:  cpu time    0.39: real time    0.39
    ORTHCH:  cpu time    0.00: real time    0.01
       DOS:  cpu time    0.00: real time    0.00
    CHARGE:  cpu time    0.11: real time    0.11
    MIXING:  cpu time    0.05: real time    0.05
    --------------------------------------------
      LOOP:  cpu time    1.55: real time    1.55

 eigenvalue-minimisations  :    20
 total energy-change (2. order) : 0.4257146E+01  (-0.7514098E-01)
 number of electron      10.0000014 magnetization 
 augmentation part        0.3642537 magnetization 

 Broyden mixing:
  rms(total) = 0.71553E+00    rms(broyden)= 0.71188E+00
  rms(prec ) = 0.11563E+01
  weight for this iteration     100.00

 eigenvalues of (default mixing * dielectric matrix)
  average eigenvalue GAMMA=   1.4319
  3.8693  3.8693  2.0529  0.3144  0.3144  0.8806  0.7837  0.7837  0.0191

 Free energy of the ion-electron system (eV)
  ---------------------------------------------------
  alpha Z        PSCENC =         0.40002888
  Ewald energy   TEWEN  =       -99.81342255
  -1/2 Hartree   DENC   =      -401.43092453
  -exchange  EXHF       =         0.00000000
  -V(xc)+E(xc)   XCENC  =        36.89387377
  PAW double counting   =       462.13988548     -464.55653481
  entropy T*S    EENTRO =        -0.58160691
  eigenvalues    EBANDS =      -113.63569395
  atomic energy  EATOM  =       579.39041991
  ---------------------------------------------------
  free energy    TOTEN  =        -1.19397471 eV

  energy without entropy =       -0.61236780  energy(sigma->0) =       -0.90317125


--------------------------------------------------------------------------------------------------------




----------------------------------------- Iteration    1(  15)  ---------------------------------------


    POTLOK:  cpu time    0.96: real time    0.96
    SETDIJ:  cpu time    0.00: real time    0.00
    EDDIAG:  cpu time    0.11: real time    0.11
  RMM-DIIS:  cpu time    0.46: real time    0.46
    ORTHCH:  cpu time    0.00: real time    0.01
       DOS:  cpu time    0.00: real time    0.00
    CHARGE:  cpu time    0.12: real time    0.12
    MIXING:  cpu time    0.06: real time    0.06
    --------------------------------------------
      LOOP:  cpu time    1.72: real time    1.73

 eigenvalue-minimisations  :    21
 total energy-change (2. order) :-0.5809785E+00  (-0.6286689E-02)
 number of electron      10.0000065 magnetization 
 augmentation part        0.7442879 magnetization 

 Broyden mixing:
  rms(total) = 0.12603E+01    rms(broyden)= 0.12590E+01
  rms(prec ) = 0.21173E+01
  weight for this iteration     100.00

 eigenvalues of (default mixing * dielectric matrix)
  average eigenvalue GAMMA=   1.3737
  3.9769  3.9769  1.9210  0.9723  0.9723  0.7268  0.3144  0.3144  0.3904  0.1716

 Free energy of the ion-electron system (eV)
  ---------------------------------------------------
  alpha Z        PSCENC =         0.40002888
  Ewald energy   TEWEN  =       -99.81342255
  -1/2 Hartree   DENC   =      -398.98174633
  -exchange  EXHF       =         0.00000000
  -V(xc)+E(xc)   XCENC  =        36.78423908
  PAW double counting   =       457.85770453     -460.23520291
  entropy T*S    EENTRO =        -0.02497609
  eigenvalues    EBANDS =      -117.15199774
  atomic energy  EATOM  =       579.39041991
  ---------------------------------------------------
  free energy    TOTEN  =        -1.77495321 eV

  energy without entropy =       -1.74997712  energy(sigma->0) =       -1.76246517


--------------------------------------------------------------------------------------------------------




----------------------------------------- Iteration    1(  16)  ---------------------------------------


    POTLOK:  cpu time    0.96: real time    0.96
    SETDIJ:  cpu time    0.00: real time    0.00
    EDDIAG:  cpu time    0.10: real time    0.10
  RMM-DIIS:  cpu time    0.41: real time    0.41
    ORTHCH:  cpu time    0.01: real time    0.01
       DOS:  cpu time    0.00: real time    0.00
    CHARGE:  cpu time    0.12: real time    0.12
    MIXING:  cpu time    0.06: real time    0.06
    --------------------------------------------
      LOOP:  cpu time    1.66: real time    1.66

 eigenvalue-minimisations  :    20
 total energy-change (2. order) :-0.5782709E+00  (-0.1839738E-01)
 number of electron       9.9999970 magnetization 
 augmentation part       -0.0232413 magnetization 

 Broyden mixing:
  rms(total) = 0.26908E+01    rms(broyden)= 0.26889E+01
  rms(prec ) = 0.45636E+01
  weight for this iteration     100.00

 eigenvalues of (default mixing * dielectric matrix)
  average eigenvalue GAMMA=   1.2600
  3.7719  3.7719  2.0246  1.0311  1.0311  0.7612  0.3144  0.3144  0.3634  0.3634
  0.1125

 Free energy of the ion-electron system (eV)
  ---------------------------------------------------
  alpha Z        PSCENC =         0.40002888
  Ewald energy   TEWEN  =       -99.81342255
  -1/2 Hartree   DENC   =      -400.78985249
  -exchange  EXHF       =         0.00000000
  -V(xc)+E(xc)   XCENC  =        36.78299243
  PAW double counting   =       458.10884116     -460.48932969
  entropy T*S    EENTRO =        -0.20226656
  eigenvalues    EBANDS =      -115.74063519
  atomic energy  EATOM  =       579.39041991
  ---------------------------------------------------
  free energy    TOTEN  =        -2.35322410 eV

  energy without entropy =       -2.15095754  energy(sigma->0) =       -2.25209082


--------------------------------------------------------------------------------------------------------




----------------------------------------- Iteration    1(  17)  ---------------------------------------


    POTLOK:  cpu time    1.01: real time    1.01
    SETDIJ:  cpu time    0.00: real time    0.00
    EDDIAG:  cpu time    0.11: real time    0.11
  RMM-DIIS:  cpu time    0.41: real time    0.41
    ORTHCH:  cpu time    0.00: real time    0.01
       DOS:  cpu time    0.00: real time    0.00
    CHARGE:  cpu time    0.09: real time    0.09
    MIXING:  cpu time    0.06: real time    0.06
    --------------------------------------------
      LOOP:  cpu time    1.69: real time    1.69

 eigenvalue-minimisations  :    19
 total energy-change (2. order) :-0.2298543E+01  (-0.6779938E-01)
 number of electron      10.0000067 magnetization 
 augmentation part        0.7778514 magnetization 

 Broyden mixing:
  rms(total) = 0.14093E+01    rms(broyden)= 0.14063E+01
  rms(prec ) = 0.23431E+01
  weight for this iteration     100.00

 eigenvalues of (default mixing * dielectric matrix)
  average eigenvalue GAMMA=   1.3113
  3.5819  3.5819  2.5396  1.1859  1.1859  0.9072  0.9072  0.3144  0.3144  0.6460
  0.4417  0.1293

 Free energy of the ion-electron system (eV)
  ---------------------------------------------------
  alpha Z        PSCENC =         0.40002888
  Ewald energy   TEWEN  =       -99.81342255
  -1/2 Hartree   DENC   =      -395.95402635
  -exchange  EXHF       =         0.00000000
  -V(xc)+E(xc)   XCENC  =        36.71747592
  PAW double counting   =       461.73213405     -464.05692203
  entropy T*S    EENTRO =        -0.00000000
  eigenvalues    EBANDS =      -123.06745470
  atomic energy  EATOM  =       579.39041991
  ---------------------------------------------------
  free energy    TOTEN  =        -4.65176686 eV

  energy without entropy =       -4.65176686  energy(sigma->0) =       -4.65176686


--------------------------------------------------------------------------------------------------------




----------------------------------------- Iteration    1(  18)  ---------------------------------------


    POTLOK:  cpu time    1.00: real time    1.00
    SETDIJ:  cpu time    0.00: real time    0.00
    EDDIAG:  cpu time    0.10: real time    0.10
  RMM-DIIS:  cpu time    0.36: real time    0.36
    ORTHCH:  cpu time    0.01: real time    0.01
       DOS:  cpu time    0.00: real time    0.00
    CHARGE:  cpu time    0.11: real time    0.11
    MIXING:  cpu time    0.07: real time    0.07
    --------------------------------------------
      LOOP:  cpu time    1.64: real time    1.64

 eigenvalue-minimisations  :    19
 total energy-change (2. order) : 0.2558808E+01  (-0.2123918E-01)
 number of electron      10.0000066 magnetization 
 augmentation part        0.7535505 magnetization 

 Broyden mixing:
  rms(total) = 0.12925E+01    rms(broyden)= 0.12924E+01
  rms(prec ) = 0.21776E+01
  weight for this iteration     100.00

 eigenvalues of (default mixing * dielectric matrix)
  average eigenvalue GAMMA=   1.2391
  3.6411  3.6411  2.5710  1.1242  1.1242  0.8640  0.8640  0.7836  0.3145  0.3145
  0.3680  0.3680  0.1295

 Free energy of the ion-electron system (eV)
  ---------------------------------------------------
  alpha Z        PSCENC =         0.40002888
  Ewald energy   TEWEN  =       -99.81342255
  -1/2 Hartree   DENC   =      -399.75642930
  -exchange  EXHF       =         0.00000000
  -V(xc)+E(xc)   XCENC  =        36.83831168
  PAW double counting   =       468.07558585     -470.45302779
  entropy T*S    EENTRO =        -0.00475438
  eigenvalues    EBANDS =      -116.76967079
  atomic energy  EATOM  =       579.39041991
  ---------------------------------------------------
  free energy    TOTEN  =        -2.09295849 eV

  energy without entropy =       -2.08820411  energy(sigma->0) =       -2.09058130


--------------------------------------------------------------------------------------------------------




----------------------------------------- Iteration    1(  19)  ---------------------------------------


    POTLOK:  cpu time    1.00: real time    1.00
    SETDIJ:  cpu time    0.00: real time    0.00
    EDDIAG:  cpu time    0.10: real time    0.10
  RMM-DIIS:  cpu time    0.38: real time    0.38
    ORTHCH:  cpu time    0.01: real time    0.01
       DOS:  cpu time    0.00: real time    0.00
    CHARGE:  cpu time    0.12: real time    0.12
    MIXING:  cpu time    0.07: real time    0.07
    --------------------------------------------
      LOOP:  cpu time    1.68: real time    1.68

 eigenvalue-minimisations  :    20
 total energy-change (2. order) : 0.7722069E+00  (-0.1321880E-01)
 number of electron      10.0000001 magnetization 
 augmentation part        0.2472640 magnetization 

 Broyden mixing:
  rms(total) = 0.12861E+01    rms(broyden)= 0.12840E+01
  rms(prec ) = 0.21676E+01
  weight for this iteration     100.00

 eigenvalues of (default mixing * dielectric matrix)
  average eigenvalue GAMMA=   1.1647
  3.6266  3.6266  2.4672  1.2110  1.2110  0.8307  0.7761  0.7761  0.3145  0.3145
  0.3838  0.3838  0.2539  0.1296

 Free energy of the ion-electron system (eV)
  ---------------------------------------------------
  alpha Z        PSCENC =         0.40002888
  Ewald energy   TEWEN  =       -99.81342255
  -1/2 Hartree   DENC   =      -401.19061326
  -exchange  EXHF       =         0.00000000
  -V(xc)+E(xc)   XCENC  =        36.85522241
  PAW double counting   =       467.19094735     -469.56938138
  entropy T*S    EENTRO =        -0.57831831
  eigenvalues    EBANDS =      -114.00563464
  atomic energy  EATOM  =       579.39041991
  ---------------------------------------------------
  free energy    TOTEN  =        -1.32075159 eV

  energy without entropy =       -0.74243328  energy(sigma->0) =       -1.03159244


--------------------------------------------------------------------------------------------------------




----------------------------------------- Iteration    1(  20)  ---------------------------------------


    POTLOK:  cpu time    1.01: real time    1.01
    SETDIJ:  cpu time    0.00: real time    0.00
    EDDIAG:  cpu time    0.11: real time    0.11
  RMM-DIIS:  cpu time    0.43: real time    0.44
    ORTHCH:  cpu time    0.01: real time    0.01
       DOS:  cpu time    0.00: real time    0.00
    CHARGE:  cpu time    0.12: real time    0.11
    MIXING:  cpu time    0.08: real time    0.08
    --------------------------------------------
      LOOP:  cpu time    1.76: real time    1.76

 eigenvalue-minimisations  :    19
 total energy-change (2. order) : 0.2007534E+00  (-0.6313783E-03)
 number of electron      10.0000026 magnetization 
 augmentation part        0.4426821 magnetization 

 Broyden mixing:
  rms(total) = 0.29103E+00    rms(broyden)= 0.29064E+00
  rms(prec ) = 0.47635E+00
  weight for this iteration     100.00

 eigenvalues of (default mixing * dielectric matrix)
  average eigenvalue GAMMA=   1.0947
  3.6300  3.6300  2.4692  1.2119  1.2119  0.8287  0.7781  0.7781  0.3145  0.3145
  0.3869  0.3869  0.1754  0.1754  0.1296

 Free energy of the ion-electron system (eV)
  ---------------------------------------------------
  alpha Z        PSCENC =         0.40002888
  Ewald energy   TEWEN  =       -99.81342255
  -1/2 Hartree   DENC   =      -400.66492405
  -exchange  EXHF       =         0.00000000
  -V(xc)+E(xc)   XCENC  =        36.83899709
  PAW double counting   =       467.19161273     -469.55940943
  entropy T*S    EENTRO =        -0.56023237
  eigenvalues    EBANDS =      -114.34306844
  atomic energy  EATOM  =       579.39041991
  ---------------------------------------------------
  free energy    TOTEN  =        -1.11999823 eV

  energy without entropy =       -0.55976586  energy(sigma->0) =       -0.83988204


--------------------------------------------------------------------------------------------------------




----------------------------------------- Iteration    1(  21)  ---------------------------------------


    POTLOK:  cpu time    1.00: real time    1.00
    SETDIJ:  cpu time    0.00: real time    0.01
    EDDIAG:  cpu time    0.09: real time    0.09
  RMM-DIIS:  cpu time    0.40: real time    0.39
    ORTHCH:  cpu time    0.01: real time    0.01
       DOS:  cpu time    0.00: real time    0.00
    CHARGE:  cpu time    0.12: real time    0.12
    MIXING:  cpu time    0.09: real time    0.09
    --------------------------------------------
      LOOP:  cpu time    1.71: real time    1.71

 eigenvalue-minimisations  :    20
 total energy-change (2. order) :-0.7084247E+00  (-0.2976749E-02)
 number of electron       9.9999980 magnetization 
 augmentation part        0.0573693 magnetization 

 Broyden mixing:
  rms(total) = 0.22719E+01    rms(broyden)= 0.22713E+01
  rms(prec ) = 0.38526E+01
  weight for this iteration     100.00

 eigenvalues of (default mixing * dielectric matrix)
  average eigenvalue GAMMA=   1.2352
  3.7345  3.7345  2.2406  1.8515  1.8515  0.9911  0.9911  0.7782  0.7782  0.3144
  0.3144  0.5844  0.5844  0.4422  0.4422  0.1296

 Free energy of the ion-electron system (eV)
  ---------------------------------------------------
  alpha Z        PSCENC =         0.40002888
  Ewald energy   TEWEN  =       -99.81342255
  -1/2 Hartree   DENC   =      -400.85625428
  -exchange  EXHF       =         0.00000000
  -V(xc)+E(xc)   XCENC  =        36.80111288
  PAW double counting   =       466.07149507     -468.42739852
  entropy T*S    EENTRO =        -0.38179954
  eigenvalues    EBANDS =      -115.01260476
  atomic energy  EATOM  =       579.39041991
  ---------------------------------------------------
  free energy    TOTEN  =        -1.82842290 eV

  energy without entropy =       -1.44662336  energy(sigma->0) =       -1.63752313


--------------------------------------------------------------------------------------------------------




----------------------------------------- Iteration    1(  22)  ---------------------------------------


    POTLOK:  cpu time    1.02: real time    1.03
    SETDIJ:  cpu time    0.00: real time    0.00
    EDDIAG:  cpu time    0.10: real time    0.10
  RMM-DIIS:  cpu time    0.38: real time    0.38
    ORTHCH:  cpu time    0.00: real time    0.01
       DOS:  cpu time    0.00: real time    0.00
    CHARGE:  cpu time    0.12: real time    0.12
    MIXING:  cpu time    0.10: real time    0.10
    --------------------------------------------
      LOOP:  cpu time    1.73: real time    1.73

 eigenvalue-minimisations  :    19
 total energy-change (2. order) :-0.1986611E+01  (-0.4162613E-01)
 number of electron      10.0000067 magnetization 
 augmentation part        0.7683261 magnetization 

 Broyden mixing:
  rms(total) = 0.13667E+01    rms(broyden)= 0.13637E+01
  rms(prec ) = 0.22884E+01
  weight for this iteration     100.00

 eigenvalues of (default mixing * dielectric matrix)
  average eigenvalue GAMMA=   1.2140
  3.7243  3.7243  2.6345  1.7150  1.7150  0.7640  0.7640  1.0567  0.9284  0.9284
  0.3144  0.3144  0.5499  0.5499  0.4121  0.4121  0.1296

 Free energy of the ion-electron system (eV)
  ---------------------------------------------------
  alpha Z        PSCENC =         0.40002888
  Ewald energy   TEWEN  =       -99.81342255
  -1/2 Hartree   DENC   =      -397.56076100
  -exchange  EXHF       =         0.00000000
  -V(xc)+E(xc)   XCENC  =        36.79489559
  PAW double counting   =       469.97923911     -472.31405037
  entropy T*S    EENTRO =        -0.00000000
  eigenvalues    EBANDS =      -120.69138339
  atomic energy  EATOM  =       579.39041991
  ---------------------------------------------------
  free energy    TOTEN  =        -3.81503381 eV

  energy without entropy =       -3.81503381  energy(sigma->0) =       -3.81503381


--------------------------------------------------------------------------------------------------------




----------------------------------------- Iteration    1(  23)  ---------------------------------------


    POTLOK:  cpu time    1.06: real time    1.06
    SETDIJ:  cpu time    0.01: real time    0.01
    EDDIAG:  cpu time    0.10: real time    0.10
  RMM-DIIS:  cpu time    0.36: real time    0.36
    ORTHCH:  cpu time    0.00: real time    0.01
       DOS:  cpu time    0.00: real time    0.00
    CHARGE:  cpu time    0.10: real time    0.10
    MIXING:  cpu time    0.09: real time    0.09
    --------------------------------------------
      LOOP:  cpu time    1.71: real time    1.71

 eigenvalue-minimisations  :    19
 total energy-change (2. order) : 0.1930956E+01  (-0.1172897E-01)
 number of electron      10.0000066 magnetization 
 augmentation part        0.7453981 magnetization 

 Broyden mixing:
  rms(total) = 0.12573E+01    rms(broyden)= 0.12572E+01
  rms(prec ) = 0.21271E+01
  weight for this iteration     100.00

 eigenvalues of (default mixing * dielectric matrix)
  average eigenvalue GAMMA=   1.2680
  3.7104  3.7104  2.6622  2.6622  1.3543  1.3543  1.3224  0.7797  0.7797  0.9291
  0.9291  0.3144  0.3144  0.5463  0.5463  0.3899  0.3899  0.1296

 Free energy of the ion-electron system (eV)
  ---------------------------------------------------
  alpha Z        PSCENC =         0.40002888
  Ewald energy   TEWEN  =       -99.81342255
  -1/2 Hartree   DENC   =      -400.25736450
  -exchange  EXHF       =         0.00000000
  -V(xc)+E(xc)   XCENC  =        36.86223051
  PAW double counting   =       472.93110847     -475.30193506
  entropy T*S    EENTRO =        -0.01513831
  eigenvalues    EBANDS =      -116.08000475
  atomic energy  EATOM  =       579.39041991
  ---------------------------------------------------
  free energy    TOTEN  =        -1.88407740 eV

  energy without entropy =       -1.86893909  energy(sigma->0) =       -1.87650824


--------------------------------------------------------------------------------------------------------




----------------------------------------- Iteration    1(  24)  ---------------------------------------


    POTLOK:  cpu time    1.00: real time    1.00
    SETDIJ:  cpu time    0.01: real time    0.00
    EDDIAG:  cpu time    0.11: real time    0.11
  RMM-DIIS:  cpu time    0.40: real time    0.41
    ORTHCH:  cpu time    0.01: real time    0.01
       DOS:  cpu time    0.00: real time    0.00
    CHARGE:  cpu time    0.12: real time    0.12
    MIXING:  cpu time    0.10: real time    0.10
    --------------------------------------------
      LOOP:  cpu time    1.75: real time    1.75

 eigenvalue-minimisations  :    19
 total energy-change (2. order) : 0.6741109E+00  (-0.2217735E-02)
 number of electron      10.0000052 magnetization 
 augmentation part        0.6340611 magnetization 

 Broyden mixing:
  rms(total) = 0.70338E+00    rms(broyden)= 0.70327E+00
  rms(prec ) = 0.11905E+01
  weight for this iteration     100.00

 eigenvalues of (default mixing * dielectric matrix)
  average eigenvalue GAMMA=   1.2046
  3.7155  3.7155  2.5373  2.5373  1.3590  1.3590  1.3930  0.7749  0.7749  0.9281
  0.9281  0.3144  0.3144  0.5461  0.5461  0.3878  0.3878  0.1296  0.2386

 Free energy of the ion-electron system (eV)
  ---------------------------------------------------
  alpha Z        PSCENC =         0.40002888
  Ewald energy   TEWEN  =       -99.81342255
  -1/2 Hartree   DENC   =      -400.59080213
  -exchange  EXHF       =         0.00000000
  -V(xc)+E(xc)   XCENC  =        36.84818780
  PAW double counting   =       470.87587426     -473.23964345
  entropy T*S    EENTRO =        -0.30821183
  eigenvalues    EBANDS =      -114.77239741
  atomic energy  EATOM  =       579.39041991
  ---------------------------------------------------
  free energy    TOTEN  =        -1.20996652 eV

  energy without entropy =       -0.90175470  energy(sigma->0) =       -1.05586061


--------------------------------------------------------------------------------------------------------




----------------------------------------- Iteration    1(  25)  ---------------------------------------


    POTLOK:  cpu time    1.00: real time    1.00
    SETDIJ:  cpu time    0.00: real time    0.00
    EDDIAG:  cpu time    0.10: real time    0.10
  RMM-DIIS:  cpu time    0.46: real time    0.46
    ORTHCH:  cpu time    0.01: real time    0.01
       DOS:  cpu time    0.00: real time    0.00
    CHARGE:  cpu time    0.11: real time    0.11
    MIXING:  cpu time    0.10: real time    0.10
    --------------------------------------------
      LOOP:  cpu time    1.78: real time    1.78

 eigenvalue-minimisations  :    24
 total energy-change (2. order) : 0.6488135E-01  (-0.4395427E-03)
 number of electron      10.0000042 magnetization 
 augmentation part        0.5575056 magnetization 

 Broyden mixing:
  rms(total) = 0.31515E+00    rms(broyden)= 0.31485E+00
  rms(prec ) = 0.53462E+00
  weight for this iteration     100.00

 eigenvalues of (default mixing * dielectric matrix)
  average eigenvalue GAMMA=   1.2072
  3.7149  3.7149  2.3619  2.3619  1.7695  1.1473  1.1473  0.9515  0.9515  0.7902
  0.7902  0.8943  0.8943  0.3144  0.3144  0.5536  0.5536  0.3941  0.3941  0.1296

 Free energy of the ion-electron system (eV)
  ---------------------------------------------------
  alpha Z        PSCENC =         0.40002888
  Ewald energy   TEWEN  =       -99.81342255
  -1/2 Hartree   DENC   =      -400.73536706
  -exchange  EXHF       =         0.00000000
  -V(xc)+E(xc)   XCENC  =        36.84154997
  PAW double counting   =       471.48780691     -473.85137681
  entropy T*S    EENTRO =        -0.44011383
  eigenvalues    EBANDS =      -114.42461060
  atomic energy  EATOM  =       579.39041991
  ---------------------------------------------------
  free energy    TOTEN  =        -1.14508517 eV

  energy without entropy =       -0.70497134  energy(sigma->0) =       -0.92502826


--------------------------------------------------------------------------------------------------------




----------------------------------------- Iteration    1(  26)  ---------------------------------------


    POTLOK:  cpu time    1.04: real time    1.04
    SETDIJ:  cpu time    0.01: real time    0.00
    EDDIAG:  cpu time    0.11: real time    0.11
  RMM-DIIS:  cpu time    0.38: real time    0.38
    ORTHCH:  cpu time    0.00: real time    0.01
       DOS:  cpu time    0.00: real time    0.00
    CHARGE:  cpu time    0.10: real time    0.11
    MIXING:  cpu time    0.10: real time    0.10
    --------------------------------------------
      LOOP:  cpu time    1.75: real time    1.75

 eigenvalue-minimisations  :    18
 total energy-change (2. order) :-0.3710390E-01  (-0.1229618E-03)
 number of electron      10.0000048 magnetization 
 augmentation part        0.5984386 magnetization 

 Broyden mixing:
  rms(total) = 0.52183E+00    rms(broyden)= 0.52181E+00
  rms(prec ) = 0.88335E+00
  weight for this iteration     100.00

 eigenvalues of (default mixing * dielectric matrix)
  average eigenvalue GAMMA=   1.1513
  3.7148  3.7148  2.3595  2.3595  1.7750  1.1480  1.1480  0.9566  0.9566  0.7893
  0.7893  0.8939  0.8939  0.3144  0.3144  0.5536  0.5536  0.3941  0.3941  0.0247
  0.1296

 Free energy of the ion-electron system (eV)
  ---------------------------------------------------
  alpha Z        PSCENC =         0.40002888
  Ewald energy   TEWEN  =       -99.81342255
  -1/2 Hartree   DENC   =      -400.39566813
  -exchange  EXHF       =         0.00000000
  -V(xc)+E(xc)   XCENC  =        36.81410612
  PAW double counting   =       471.05292628     -473.40916552
  entropy T*S    EENTRO =        -0.37626256
  eigenvalues    EBANDS =      -114.84515148
  atomic energy  EATOM  =       579.39041991
  ---------------------------------------------------
  free energy    TOTEN  =        -1.18218906 eV

  energy without entropy =       -0.80592650  energy(sigma->0) =       -0.99405778


--------------------------------------------------------------------------------------------------------




----------------------------------------- Iteration    1(  27)  ---------------------------------------


    POTLOK:  cpu time    1.00: real time    1.00
    SETDIJ:  cpu time    0.00: real time    0.00
    EDDIAG:  cpu time    0.11: real time    0.11
  RMM-DIIS:  cpu time    0.36: real time    0.36
    ORTHCH:  cpu time    0.01: real time    0.01
       DOS:  cpu time    0.00: real time    0.00
    CHARGE:  cpu time    0.12: real time    0.12
    MIXING:  cpu time    0.13: real time    0.13
    --------------------------------------------
      LOOP:  cpu time    1.73: real time    1.73

 eigenvalue-minimisations  :    16
 total energy-change (2. order) : 0.4051714E-01  (-0.8934720E-04)
 number of electron      10.0000040 magnetization 
 augmentation part        0.5374731 magnetization 

 Broyden mixing:
  rms(total) = 0.20935E+00    rms(broyden)= 0.20919E+00
  rms(prec ) = 0.35236E+00
  weight for this iteration     100.00

 eigenvalues of (default mixing * dielectric matrix)
  average eigenvalue GAMMA=   1.2018
  3.7115  3.7115  2.4603  2.4603  1.9442  1.2992  1.2992  1.2557  1.2557  0.9006
  0.9006  0.7852  0.7852  0.5519  0.5519  0.3144  0.3144  0.5091  0.5091  0.3948
  0.3948  0.1296

 Free energy of the ion-electron system (eV)
  ---------------------------------------------------
  alpha Z        PSCENC =         0.40002888
  Ewald energy   TEWEN  =       -99.81342255
  -1/2 Hartree   DENC   =      -400.27345807
  -exchange  EXHF       =         0.00000000
  -V(xc)+E(xc)   XCENC  =        36.79675893
  PAW double counting   =       470.47177696     -472.82229378
  entropy T*S    EENTRO =        -0.47039495
  eigenvalues    EBANDS =      -114.82108726
  atomic energy  EATOM  =       579.39041991
  ---------------------------------------------------
  free energy    TOTEN  =        -1.14167192 eV

  energy without entropy =       -0.67127698  energy(sigma->0) =       -0.90647445


--------------------------------------------------------------------------------------------------------




----------------------------------------- Iteration    1(  28)  ---------------------------------------


    POTLOK:  cpu time    1.02: real time    1.02
    SETDIJ:  cpu time    0.00: real time    0.01
    EDDIAG:  cpu time    0.09: real time    0.09
  RMM-DIIS:  cpu time    0.26: real time    0.26
    ORTHCH:  cpu time    0.00: real time    0.01
       DOS:  cpu time    0.00: real time    0.00
    CHARGE:  cpu time    0.10: real time    0.10
    MIXING:  cpu time    0.12: real time    0.12
    --------------------------------------------
      LOOP:  cpu time    1.60: real time    1.60

 eigenvalue-minimisations  :    14
 total energy-change (2. order) :-0.2693353E-01  (-0.3862554E-04)
 number of electron      10.0000046 magnetization 
 augmentation part        0.5815283 magnetization 

 Broyden mixing:
  rms(total) = 0.43300E+00    rms(broyden)= 0.43297E+00
  rms(prec ) = 0.73138E+00
  weight for this iteration     100.00

 eigenvalues of (default mixing * dielectric matrix)
  average eigenvalue GAMMA=   1.3590
  3.6797  3.6797  3.6950  3.6950  2.5802  1.6577  1.6577  1.3360  1.3360  0.7942
  0.7942  0.8785  0.8785  0.7709  0.7709  0.3144  0.3144  0.5487  0.5487  0.3948
  0.3948  0.4067  0.1296

 Free energy of the ion-electron system (eV)
  ---------------------------------------------------
  alpha Z        PSCENC =         0.40002888
  Ewald energy   TEWEN  =       -99.81342255
  -1/2 Hartree   DENC   =      -400.14181413
  -exchange  EXHF       =         0.00000000
  -V(xc)+E(xc)   XCENC  =        36.78925894
  PAW double counting   =       470.99376097     -473.34213256
  entropy T*S    EENTRO =        -0.40661802
  eigenvalues    EBANDS =      -115.03808689
  atomic energy  EATOM  =       579.39041991
  ---------------------------------------------------
  free energy    TOTEN  =        -1.16860546 eV

  energy without entropy =       -0.76198744  energy(sigma->0) =       -0.96529645


--------------------------------------------------------------------------------------------------------




----------------------------------------- Iteration    1(  29)  ---------------------------------------


    POTLOK:  cpu time    1.01: real time    1.01
    SETDIJ:  cpu time    0.00: real time    0.00
    EDDIAG:  cpu time    0.10: real time    0.10
  RMM-DIIS:  cpu time    0.34: real time    0.33
    ORTHCH:  cpu time    0.00: real time    0.01
       DOS:  cpu time    0.00: real time    0.00
    CHARGE:  cpu time    0.11: real time    0.11
    MIXING:  cpu time    0.14: real time    0.14
    --------------------------------------------
      LOOP:  cpu time    1.72: real time    1.72

 eigenvalue-minimisations  :    15
 total energy-change (2. order) : 0.2406770E-01  (-0.2388275E-04)
 number of electron      10.0000041 magnetization 
 augmentation part        0.5410823 magnetization 

 Broyden mixing:
  rms(total) = 0.22540E+00    rms(broyden)= 0.22535E+00
  rms(prec ) = 0.37993E+00
  weight for this iteration     100.00

 eigenvalues of (default mixing * dielectric matrix)
  average eigenvalue GAMMA=   1.3527
  3.6699  3.6699  3.8462  3.8462  2.4952  1.6249  1.6249  1.2929  1.2929  1.0495
  1.0495  0.7944  0.7944  0.8205  0.8205  0.3144  0.3144  0.6644  0.5494  0.5494
  0.3950  0.3950  0.4615  0.1296

 Free energy of the ion-electron system (eV)
  ---------------------------------------------------
  alpha Z        PSCENC =         0.40002888
  Ewald energy   TEWEN  =       -99.81342255
  -1/2 Hartree   DENC   =      -400.14965104
  -exchange  EXHF       =         0.00000000
  -V(xc)+E(xc)   XCENC  =        36.78558459
  PAW double counting   =       470.94748940     -473.29434396
  entropy T*S    EENTRO =        -0.46636115
  eigenvalues    EBANDS =      -114.94428184
  atomic energy  EATOM  =       579.39041991
  ---------------------------------------------------
  free energy    TOTEN  =        -1.14453775 eV

  energy without entropy =       -0.67817660  energy(sigma->0) =       -0.91135718


--------------------------------------------------------------------------------------------------------




----------------------------------------- Iteration    1(  30)  ---------------------------------------


    POTLOK:  cpu time    1.02: real time    1.02
    SETDIJ:  cpu time    0.00: real time    0.01
    EDDIAG:  cpu time    0.10: real time    0.10
  RMM-DIIS:  cpu time    0.24: real time    0.24
    ORTHCH:  cpu time    0.01: real time    0.01
       DOS:  cpu time    0.00: real time    0.00
    CHARGE:  cpu time    0.11: real time    0.11
    MIXING:  cpu time    0.13: real time    0.13
    --------------------------------------------
      LOOP:  cpu time    1.62: real time    1.62

 eigenvalue-minimisations  :    11
 total energy-change (2. order) :-0.2283474E-01  (-0.9924120E-05)
 number of electron      10.0000046 magnetization 
 augmentation part        0.5795176 magnetization 

 Broyden mixing:
  rms(total) = 0.42188E+00    rms(broyden)= 0.42185E+00
  rms(prec ) = 0.71304E+00
  weight for this iteration     100.00

 eigenvalues of (default mixing * dielectric matrix)
  average eigenvalue GAMMA=   1.3374
  3.6697  3.6697  3.5642  3.5642  2.2596  2.2596  1.6204  1.6204  1.2480  1.2480
  0.7942  0.7942  0.9522  0.9522  0.7977  0.7977  0.3144  0.3144  0.5502  0.5502
  0.3949  0.3949  0.5159  0.4591  0.1296

 Free energy of the ion-electron system (eV)
  ---------------------------------------------------
  alpha Z        PSCENC =         0.40002888
  Ewald energy   TEWEN  =       -99.81342255
  -1/2 Hartree   DENC   =      -400.09170182
  -exchange  EXHF       =         0.00000000
  -V(xc)+E(xc)   XCENC  =        36.78442533
  PAW double counting   =       471.36382815     -473.71044968
  entropy T*S    EENTRO =        -0.40994200
  eigenvalues    EBANDS =      -115.08055871
  atomic energy  EATOM  =       579.39041991
  ---------------------------------------------------
  free energy    TOTEN  =        -1.16737249 eV

  energy without entropy =       -0.75743049  energy(sigma->0) =       -0.96240149


--------------------------------------------------------------------------------------------------------




----------------------------------------- Iteration    1(  31)  ---------------------------------------


    POTLOK:  cpu time    1.04: real time    1.04
    SETDIJ:  cpu time    0.00: real time    0.01
    EDDIAG:  cpu time    0.10: real time    0.10
  RMM-DIIS:  cpu time    0.31: real time    0.31
    ORTHCH:  cpu time    0.01: real time    0.01
       DOS:  cpu time    0.00: real time    0.00
    CHARGE:  cpu time    0.10: real time    0.10
    MIXING:  cpu time    0.14: real time    0.13
    --------------------------------------------
      LOOP:  cpu time    1.70: real time    1.69

 eigenvalue-minimisations  :    15
 total energy-change (2. order) : 0.2694605E-01  (-0.2587161E-04)
 number of electron      10.0000039 magnetization 
[...]
  free energy    TOTEN  =        -1.14316801 eV

  energy without entropy =       -0.63924208  energy(sigma->0) =       -0.89120504


--------------------------------------------------------------------------------------------------------




----------------------------------------- Iteration    1(  42)  ---------------------------------------


    POTLOK:  cpu time    1.00: real time    1.01
    SETDIJ:  cpu time    0.00: real time    0.00
    EDDIAG:  cpu time    0.09: real time    0.09
  RMM-DIIS:  cpu time    0.24: real time    0.24
    ORTHCH:  cpu time    0.00: real time    0.01
       DOS:  cpu time    0.00: real time    0.00
    CHARGE:  cpu time    0.10: real time    0.11
    MIXING:  cpu time    0.23: real time    0.22
    --------------------------------------------
      LOOP:  cpu time    1.68: real time    1.68

 eigenvalue-minimisations  :    11
 total energy-change (2. order) : 0.7042227E-03  (-0.1929995E-05)
 number of electron      10.0000035 magnetization 
 augmentation part        0.4947453 magnetization 

 Broyden mixing:
  rms(total) = 0.13107E-01    rms(broyden)= 0.12958E-01
  rms(prec ) = 0.22230E-01
  weight for this iteration     100.00

 eigenvalues of (default mixing * dielectric matrix)
  average eigenvalue GAMMA=   1.3314
  5.0128  3.6704  3.6704  3.5895  3.5895  3.4855  2.3665  1.6153  1.6153  1.3457
  1.3457  1.3790  1.3790  1.1115  1.1115  0.7952  0.7952  0.9204  0.9204  0.8913
  0.8913  0.8387  0.6712  0.6712  0.3144  0.3144  0.1296  0.5466  0.5466  0.5545
  0.5545  0.3949  0.3949  0.4828  0.4828  0.4601  0.4024

 Free energy of the ion-electron system (eV)
  ---------------------------------------------------
  alpha Z        PSCENC =         0.40002888
  Ewald energy   TEWEN  =       -99.81342255
  -1/2 Hartree   DENC   =      -400.26267076
  -exchange  EXHF       =         0.00000000
  -V(xc)+E(xc)   XCENC  =        36.78513298
  PAW double counting   =       471.68448539     -474.02973139
  entropy T*S    EENTRO =        -0.52009868
  eigenvalues    EBANDS =      -114.77660755
  atomic energy  EATOM  =       579.39041991
  ---------------------------------------------------
  free energy    TOTEN  =        -1.14246378 eV

  energy without entropy =       -0.62236510  energy(sigma->0) =       -0.88241444


--------------------------------------------------------------------------------------------------------




----------------------------------------- Iteration    1(  43)  ---------------------------------------


    POTLOK:  cpu time    1.03: real time    1.03
    SETDIJ:  cpu time    0.01: real time    0.00
    EDDIAG:  cpu time    0.08: real time    0.08
  RMM-DIIS:  cpu time    0.20: real time    0.20
    ORTHCH:  cpu time    0.00: real time    0.01
       DOS:  cpu time    0.00: real time    0.00
    CHARGE:  cpu time    0.11: real time    0.11
    MIXING:  cpu time    0.22: real time    0.22
    --------------------------------------------
      LOOP:  cpu time    1.65: real time    1.65

 eigenvalue-minimisations  :    10
 total energy-change (2. order) :-0.5766166E-03  (-0.1573635E-05)
 number of electron      10.0000037 magnetization 
 augmentation part        0.5076849 magnetization 

 Broyden mixing:
  rms(total) = 0.53652E-01    rms(broyden)= 0.53632E-01
  rms(prec ) = 0.90578E-01
  weight for this iteration     100.00

 eigenvalues of (default mixing * dielectric matrix)
  average eigenvalue GAMMA=   1.3488
  5.4531  3.6703  3.6703  3.8681  3.8681  3.0233  2.3776  2.3776  1.6194  1.6194
  1.3255  1.3255  1.2885  1.2885  0.7952  0.7952  0.9985  0.9985  0.8784  0.8784
  0.7995  0.7995  0.3144  0.3144  0.1296  0.6115  0.6115  0.6407  0.6407  0.5486
  0.5486  0.5718  0.5718  0.3949  0.3949  0.4494  0.3972  0.3972

 Free energy of the ion-electron system (eV)
  ---------------------------------------------------
  alpha Z        PSCENC =         0.40002888
  Ewald energy   TEWEN  =       -99.81342255
  -1/2 Hartree   DENC   =      -400.25045077
  -exchange  EXHF       =         0.00000000
  -V(xc)+E(xc)   XCENC  =        36.78557770
  PAW double counting   =       471.73620363     -474.08142296
  entropy T*S    EENTRO =        -0.50632910
  eigenvalues    EBANDS =      -114.80364514
  atomic energy  EATOM  =       579.39041991
  ---------------------------------------------------
  free energy    TOTEN  =        -1.14304040 eV

  energy without entropy =       -0.63671130  energy(sigma->0) =       -0.88987585


--------------------------------------------------------------------------------------------------------




----------------------------------------- Iteration    1(  44)  ---------------------------------------


    POTLOK:  cpu time    1.01: real time    1.01
    SETDIJ:  cpu time    0.00: real time    0.00
    EDDIAG:  cpu time    0.10: real time    0.10
  RMM-DIIS:  cpu time    0.22: real time    0.22
    ORTHCH:  cpu time    0.00: real time    0.01
       DOS:  cpu time    0.00: real time    0.00
    CHARGE:  cpu time    0.11: real time    0.11
    MIXING:  cpu time    0.23: real time    0.23
    --------------------------------------------
      LOOP:  cpu time    1.68: real time    1.68

 eigenvalue-minimisations  :    10
 total energy-change (2. order) : 0.4406471E-03  (-0.1610964E-05)
 number of electron      10.0000035 magnetization 
 augmentation part        0.4928088 magnetization 

 Broyden mixing:
  rms(total) = 0.22874E-01    rms(broyden)= 0.22799E-01
  rms(prec ) = 0.38814E-01
  weight for this iteration     100.00

 eigenvalues of (default mixing * dielectric matrix)
  average eigenvalue GAMMA=   1.3535
  5.4000  3.6702  3.6702  3.8275  3.8275  3.3147  2.6255  2.6255  1.6189  1.6189
  1.4357  1.4357  1.2686  1.2686  0.7952  0.7952  0.9138  0.9138  0.8707  0.8707
  0.8655  0.8655  0.7609  0.6677  0.6677  0.1296  0.3144  0.3144  0.5919  0.5919
  0.5473  0.5473  0.3949  0.3949  0.5415  0.5415  0.4028  0.4407  0.4407

 Free energy of the ion-electron system (eV)
  ---------------------------------------------------
  alpha Z        PSCENC =         0.40002888
  Ewald energy   TEWEN  =       -99.81342255
  -1/2 Hartree   DENC   =      -400.27535686
  -exchange  EXHF       =         0.00000000
  -V(xc)+E(xc)   XCENC  =        36.78582634
  PAW double counting   =       471.72600390     -474.07123367
  entropy T*S    EENTRO =        -0.52200129
  eigenvalues    EBANDS =      -114.76286441
  atomic energy  EATOM  =       579.39041991
  ---------------------------------------------------
  free energy    TOTEN  =        -1.14259975 eV

  energy without entropy =       -0.62059846  energy(sigma->0) =       -0.88159911


--------------------------------------------------------------------------------------------------------




----------------------------------------- Iteration    1(  45)  ---------------------------------------


    POTLOK:  cpu time    1.03: real time    1.03
    SETDIJ:  cpu time    0.01: real time    0.00
    EDDIAG:  cpu time    0.08: real time    0.08
  RMM-DIIS:  cpu time    0.19: real time    0.19
    ORTHCH:  cpu time    0.01: real time    0.01
       DOS:  cpu time    0.00: real time    0.00
    CHARGE:  cpu time    0.10: real time    0.10
    MIXING:  cpu time    0.22: real time    0.22
    --------------------------------------------
      LOOP:  cpu time    1.64: real time    1.64

 eigenvalue-minimisations  :    10
 total energy-change (2. order) :-0.2350105E-03  (-0.1323168E-05)
 number of electron      10.0000036 magnetization 
 augmentation part        0.5044660 magnetization 

 Broyden mixing:
  rms(total) = 0.37192E-01    rms(broyden)= 0.37169E-01
  rms(prec ) = 0.62798E-01
  weight for this iteration     100.00

 eigenvalues of (default mixing * dielectric matrix)
  average eigenvalue GAMMA=   1.3611
  5.8492  4.1825  4.1825  3.6702  3.6702  2.6669  2.6669  2.6068  1.6166  1.6166
  1.5321  1.5321  1.3100  1.3100  0.7952  0.7952  0.9020  0.9020  0.9726  0.9726
  0.8346  0.8210  0.8210  0.6959  0.6959  0.3144  0.3144  0.1296  0.6315  0.6315
  0.5593  0.5593  0.5484  0.5484  0.3949  0.3949  0.5239  0.4034  0.4350  0.4350

 Free energy of the ion-electron system (eV)
  ---------------------------------------------------
  alpha Z        PSCENC =         0.40002888
  Ewald energy   TEWEN  =       -99.81342255
  -1/2 Hartree   DENC   =      -400.26444277
  -exchange  EXHF       =         0.00000000
  -V(xc)+E(xc)   XCENC  =        36.78627458
  PAW double counting   =       471.77456087     -474.11979940
  entropy T*S    EENTRO =        -0.50978921
  eigenvalues    EBANDS =      -114.78666509
  atomic energy  EATOM  =       579.39041991
  ---------------------------------------------------
  free energy    TOTEN  =        -1.14283476 eV

  energy without entropy =       -0.63304556  energy(sigma->0) =       -0.88794016


--------------------------------------------------------------------------------------------------------




----------------------------------------- Iteration    1(  46)  ---------------------------------------


    POTLOK:  cpu time    1.00: real time    1.00
    SETDIJ:  cpu time    0.00: real time    0.00
    EDDIAG:  cpu time    0.09: real time    0.09
  RMM-DIIS:  cpu time    0.22: real time    0.23
    ORTHCH:  cpu time    0.00: real time    0.01
       DOS:  cpu time    0.00: real time    0.00
    CHARGE:  cpu time    0.11: real time    0.11
    MIXING:  cpu time    0.25: real time    0.25
    --------------------------------------------
      LOOP:  cpu time    1.69: real time    1.69

 eigenvalue-minimisations  :    10
 total energy-change (2. order) : 0.1723630E-03  (-0.8777315E-06)
 number of electron      10.0000035 magnetization 
 augmentation part        0.4931710 magnetization 

 Broyden mixing:
  rms(total) = 0.20833E-01    rms(broyden)= 0.20788E-01
  rms(prec ) = 0.35358E-01
  weight for this iteration     100.00

 eigenvalues of (default mixing * dielectric matrix)
  average eigenvalue GAMMA=   1.3597
  5.7110  3.6702  3.6702  3.9246  3.9246  3.2327  3.2327  2.6288  1.6156  1.6156
  1.6421  1.6421  1.3647  1.3647  0.7952  0.7952  0.9076  0.9076  0.9294  0.9294
  0.8596  0.8596  0.8045  0.7239  0.7239  0.3144  0.3144  0.1296  0.6210  0.6210
  0.5736  0.5736  0.5484  0.5484  0.3949  0.3949  0.4822  0.4822  0.4028  0.4353
  0.4353

 Free energy of the ion-electron system (eV)
  ---------------------------------------------------
  alpha Z        PSCENC =         0.40002888
  Ewald energy   TEWEN  =       -99.81342255
  -1/2 Hartree   DENC   =      -400.28204445
  -exchange  EXHF       =         0.00000000
  -V(xc)+E(xc)   XCENC  =        36.78633504
  PAW double counting   =       471.76105268     -474.10627211
  entropy T*S    EENTRO =        -0.52158347
  eigenvalues    EBANDS =      -114.75717633
  atomic energy  EATOM  =       579.39041991
  ---------------------------------------------------
  free energy    TOTEN  =        -1.14266240 eV

  energy without entropy =       -0.62107893  energy(sigma->0) =       -0.88187066


--------------------------------------------------------------------------------------------------------




----------------------------------------- Iteration    1(  47)  ---------------------------------------


    POTLOK:  cpu time    1.05: real time    1.05
    SETDIJ:  cpu time    0.00: real time    0.00
    EDDIAG:  cpu time    0.09: real time    0.10
  RMM-DIIS:  cpu time    0.19: real time    0.19
    ORTHCH:  cpu time    0.00: real time    0.01
       DOS:  cpu time    0.00: real time    0.00
    --------------------------------------------
      LOOP:  cpu time    1.34: real time    1.34

 eigenvalue-minimisations  :     9
 total energy-change (2. order) :-0.3912659E-04  (-0.6538711E-06)
 number of electron      10.0000035 magnetization 
 augmentation part        0.4931710 magnetization 

 Free energy of the ion-electron system (eV)
  ---------------------------------------------------
  alpha Z        PSCENC =         0.40002888
  Ewald energy   TEWEN  =       -99.81342255
  -1/2 Hartree   DENC   =      -400.27660232
  -exchange  EXHF       =         0.00000000
  -V(xc)+E(xc)   XCENC  =        36.78681931
  PAW double counting   =       471.80431134     -474.14955272
  entropy T*S    EENTRO =        -0.51334984
  eigenvalues    EBANDS =      -114.77135354
  atomic energy  EATOM  =       579.39041991
  ---------------------------------------------------
  free energy    TOTEN  =        -1.14270153 eV

  energy without entropy =       -0.62935168  energy(sigma->0) =       -0.88602661


--------------------------------------------------------------------------------------------------------




 average (electrostatic) potential at core
  the test charge radii are     0.6991  0.7215
  (the norm of the test charge is              1.0000)
       1 -64.0923       2 -81.0601
 
 
 
 E-fermi :  -6.7595     XC(G=0):  -0.8783     alpha+bet : -0.1603


 k-point   1 :       0.0000    0.0000    0.0000
  band No.  band energies     occupation 
      1     -21.6742      2.00000
      2     -15.2587      2.00000
      3      -6.9076      1.70502
      4      -6.8399      1.43046
      5      -6.8398      1.43004
      6      -6.6808      0.57798
      7      -6.6806      0.57686
      8      -6.6066      0.27965
      9      -0.5133      0.00000


--------------------------------------------------------------------------------------------------------


 soft charge-density along one line, spin component           1
         0         1         2         3         4         5         6         7         8         9
 total charge-density along one line
 
 pseudopotential strength for first ion, spin component:           1
 10.543  14.029  -0.000   0.000  -0.000   0.000  -0.001   0.000
 14.029  18.667  -0.000   0.000  -0.000   0.000  -0.001   0.000
 -0.000  -0.000  -4.688   0.000   0.000   9.197  -0.000  -0.000
  0.000   0.000   0.000  -4.691   0.000  -0.000   9.202  -0.000
 -0.000  -0.000   0.000   0.000  -4.688  -0.000  -0.000   9.197
  0.000   0.000   9.197  -0.000  -0.000 -20.196   0.000   0.000
 -0.001  -0.001  -0.000   9.202  -0.000   0.000 -20.207   0.000
  0.000   0.000  -0.000  -0.000   9.197   0.000   0.000 -20.196
 total augmentation occupancy for first ion, spin component:           1
  1.713   0.127   0.000  -0.006   0.000   0.000  -0.001   0.000
  0.127   0.010   0.000  -0.005   0.000   0.000  -0.000   0.000
  0.000   0.000   0.654   0.000   0.000   0.001   0.000   0.000
 -0.006  -0.005   0.000   0.596   0.000   0.000   0.002   0.000
  0.000   0.000   0.000   0.000   0.654   0.000   0.000   0.001
  0.000   0.000   0.001   0.000   0.000   0.000   0.000   0.000
 -0.001  -0.000   0.000   0.002   0.000   0.000   0.000   0.000
  0.000   0.000   0.000   0.000   0.001   0.000   0.000   0.000


------------------------ aborting loop because EDIFF is reached ----------------------------------------


    CHARGE:  cpu time    0.10: real time    0.09
    FORLOC:  cpu time    0.09: real time    0.09
    FORNL :  cpu time    0.06: real time    0.06
    STRESS:  cpu time    0.34: real time    0.34
    FORCOR:  cpu time    1.14: real time    1.14
    FORHAR:  cpu time    0.27: real time    0.27
    MIXING:  cpu time    0.26: real time    0.26

  FORCE on cell =-STRESS in cart. coord.  units (eV):
  Direction    XX          YY          ZZ          XY          YZ          ZX
  --------------------------------------------------------------------------------------
  Alpha Z     0.40003     0.40003     0.40003
  Ewald     -66.03732   -69.60374    35.82758     0.00000    -0.00000    -0.00000
  Hartree   105.06725   101.60926   195.17856    -0.00000    -0.00000    -0.00000
  E(xc)     -40.33067   -40.32973   -40.32153    -0.00000     0.00000     0.00000
  Local    -167.13979  -160.14002  -358.80435     0.00000     0.00000    -0.00000
  n-local   -14.97606   -14.98023   -14.69778     0.00000    -0.00000     0.00000
  augment     5.85313     5.85570     5.84898     0.00000    -0.00000    -0.00000
  Kinetic   176.62086   176.66903   174.83501     0.00000    -0.00000     0.00000
  Fock        0.00000     0.00000     0.00000     0.00000     0.00000     0.00000
  -------------------------------------------------------------------------------------
  Total      -0.54257    -0.51970    -1.73350     0.00000     0.00000     0.00000
  in kB      -0.79583    -0.76227    -2.54265     0.00000     0.00000     0.00000
  external pressure =       -1.37 kB  Pullay stress =        0.00 kB


 VOLUME and BASIS-vectors are now :
 -----------------------------------------------------------------------------
  energy-cutoff  :      400.00
  volume of cell :     1092.32
      direct lattice vectors                 reciprocal lattice vectors
    10.100000000  0.000000000  0.000000000     0.099009901  0.000000000  0.000000000
     0.000000000 10.300000000  0.000000000     0.000000000  0.097087379  0.000000000
     0.000000000  0.000000000 10.500000000     0.000000000  0.000000000  0.095238095

  length of vectors
    10.100000000 10.300000000 10.500000000     0.099009901  0.097087379  0.095238095


 FORCES acting on ions
    electron-ion (+dipol)            ewald-force                    non-local-force                 convergence-correction
 -----------------------------------------------------------------------------------------------
   0.203E-14 0.205E-14 0.141E+02   -.190E-16 -.115E-16 -.143E+02   0.000E+00 0.000E+00 0.542E+00   0.742E-13 0.203E-12 -.644E-01
   0.284E-14 0.295E-14 -.135E+02   0.506E-16 0.259E-16 0.143E+02   0.000E+00 0.000E+00 -.896E+00   0.293E-12 0.521E-12 -.975E-01
 -----------------------------------------------------------------------------------------------
   0.487E-14 0.500E-14 0.509E+00   0.315E-16 0.144E-16 0.000E+00   0.000E+00 0.000E+00 -.354E+00   0.367E-12 0.724E-12 -.162E+00
 
 
 POSITION                                       TOTAL-FORCE (eV/Angst)
 -----------------------------------------------------------------------------------
      0.00000      0.00000      0.00000         0.000000      0.000000      0.240454
      0.00000      0.00000      4.00000         0.000000      0.000000     -0.240454
 -----------------------------------------------------------------------------------
    total drift:                                0.000000      0.000000     -0.007054


--------------------------------------------------------------------------------------------------------



  FREE ENERGIE OF THE ION-ELECTRON SYSTEM (eV)
  ---------------------------------------------------
  free  energy   TOTEN  =        -1.14270153 eV

  energy  without entropy=       -0.62935168  energy(sigma->0) =       -0.88602661
 


--------------------------------------------------------------------------------------------------------


    POTLOK:  cpu time    1.03: real time    1.03


--------------------------------------------------------------------------------------------------------


     LOOP+:  cpu time   70.48: real time   70.54
    4ORBIT:  cpu time    0.00: real time    0.00

 total amount of memory used by VASP on root node   140193. kBytes
========================================================================

   base      :      30000. kBytes
   nonl-proj :       3171. kBytes
   fftplans  :      37440. kBytes
   grid      :      66720. kBytes
   one-center:          6. kBytes
   wavefun   :       2856. kBytes
 
  
  
 General timing and accounting informations for this job:
 ========================================================
  
                  Total CPU time used (sec):       71.908
                            User time (sec):       71.392
                          System time (sec):        0.516
                         Elapsed time (sec):       71.974
  
                   Maximum memory used (kb):      249504.
                   Average memory used (kb):           0.
  
                          Minor page faults:       179590
                          Major page faults:            0
                 Voluntary context switches:            1
