 vasp.5.3.3 18Dez12 (build Sep  7 2015 22:32:56) complex                        
  
 executed on             LinuxIFC date 2002.02.05  01:07:26
 running on    1 total cores
 distrk:  each k-point on    1 cores,    1 groups
 distr:  one band on NCORES_PER_BAND=   1 cores,    1 groups


--------------------------------------------------------------------------------------------------------


 INCAR:
 POTCAR:    PAW_PBE C 08Apr2002                   
 POTCAR:    PAW_PBE O 08Apr2002                   
 POTCAR:    PAW_PBE C 08Apr2002                   
   VRHFIN =C: s2p2                                                              
   LEXCH  = PE                                                                  
   EATOM  =   147.1560 eV,   10.8157 Ry                                         
                                                                                
   TITEL  = PAW_PBE C 08Apr2002                                                 
   LULTRA =        F    use ultrasoft PP ?                                      
   IUNSCR =        1    unscreen: 0-lin 1-nonlin 2-no                           
   RPACOR =    1.200    partial core radius                                     
   POMASS =   12.011; ZVAL   =    4.000    mass and valenz                      
   RCORE  =    1.500    outmost cutoff radius                                   
   RWIGS  =    1.630; RWIGS  =    0.863    wigner-seitz radius (au A)           
   ENMAX  =  400.000; ENMIN  =  300.000 eV                                      
   ICORE  =        2    local potential                                         
   LCOR   =        T    correct aug charges                                     
   LPAW   =        T    paw PP                                                  
   EAUG   =  644.873                                                            
   DEXC   =    0.000                                                            
   RMAX   =    1.529    core radius for proj-oper                               
   RAUG   =    1.300    factor for augmentation sphere                          
   RDEP   =    1.501    radius for radial grids                                 
   RDEPT  =    1.300    core radius for aug-charge                              
                                                                                
   Atomic configuration                                                         
    4 entries                                                                   
     n  l   j            E        occ.                                          
     1  0  0.50      -273.3789   2.0000                                         
     2  0  0.50       -13.7508   2.0000                                         
     2  1  0.50        -5.2854   2.0000                                         
     3  2  1.50        -5.4423   0.0000                                         
   Description                                                                  
     l       E           TYP  RCUT    TYP  RCUT                                 
     0    -13.7508458     23  1.200                                             
     0     -8.2022199     23  1.200                                             
     1     -5.2854383     23  1.500                                             
     1     34.0145650     23  1.500                                             
     2     -5.4423304      7  1.500                                             
  local pseudopotential read in
  partial core-charges read in
  partial kinetic energy density read in
  atomic valenz-charges read in
  non local Contribution for L=           0  read in
    real space projection operators read in
  non local Contribution for L=           0  read in
    real space projection operators read in
  non local Contribution for L=           1  read in
    real space projection operators read in
  non local Contribution for L=           1  read in
    real space projection operators read in
    PAW grid and wavefunctions read in
 
   number of l-projection  operators is LMAX  =           4
   number of lm-projection operators is LMMAX =           8
 
 POTCAR:    PAW_PBE O 08Apr2002                   
   VRHFIN =O: s2p4                                                              
   LEXCH  = PE                                                                  
   EATOM  =   432.3788 eV,   31.7789 Ry                                         
                                                                                
   TITEL  = PAW_PBE O 08Apr2002                                                 
   LULTRA =        F    use ultrasoft PP ?                                      
   IUNSCR =        1    unscreen: 0-lin 1-nonlin 2-no                           
   RPACOR =    1.200    partial core radius                                     
   POMASS =   16.000; ZVAL   =    6.000    mass and valenz                      
   RCORE  =    1.520    outmost cutoff radius                                   
   RWIGS  =    1.550; RWIGS  =    0.820    wigner-seitz radius (au A)           
   ENMAX  =  400.000; ENMIN  =  300.000 eV                                      
   ICORE  =        2    local potential                                         
   LCOR   =        T    correct aug charges                                     
   LPAW   =        T    paw PP                                                  
   EAUG   =  605.392                                                            
   DEXC   =    0.000                                                            
   RMAX   =    1.553    core radius for proj-oper                               
   RAUG   =    1.300    factor for augmentation sphere                          
   RDEP   =    1.550    radius for radial grids                                 
   RDEPT  =    1.329    core radius for aug-charge                              
                                                                                
   Atomic configuration                                                         
    4 entries                                                                   
     n  l   j            E        occ.                                          
     1  0  0.50      -514.6923   2.0000                                         
     2  0  0.50       -23.9615   2.0000                                         
     2  1  0.50        -9.0305   4.0000                                         
     3  2  1.50        -9.5241   0.0000                                         
   Description                                                                  
     l       E           TYP  RCUT    TYP  RCUT                                 
     0    -23.9615318     23  1.200                                             
     0     -9.5240782     23  1.200                                             
     1     -9.0304911     23  1.520                                             
     1      8.1634956     23  1.520                                             
     2     -9.5240782      7  1.500                                             
  local pseudopotential read in
  partial core-charges read in
  partial kinetic energy density read in
  kinetic energy density of atom read in
  atomic valenz-charges read in
  non local Contribution for L=           0  read in
    real space projection operators read in
  non local Contribution for L=           0  read in
    real space projection operators read in
  non local Contribution for L=           1  read in
    real space projection operators read in
  non local Contribution for L=           1  read in
    real space projection operators read in
    PAW grid and wavefunctions read in
 
   number of l-projection  operators is LMAX  =           4
   number of lm-projection operators is LMMAX =           8
 
  PAW_PBE C 08Apr2002                   :
 energy of atom  1       EATOM= -147.1560
 kinetic energy error for atom=    0.0288 (will be added to EATOM!!)
  PAW_PBE O 08Apr2002                   :
 energy of atom  2       EATOM= -432.3788
 kinetic energy error for atom=    0.1156 (will be added to EATOM!!)
 
 
 POSCAR: CO molecule in a box                    
  positions in cartesian coordinates
  No initial velocities read in
 exchange correlation table for  LEXCH =        8
   RHO(1)=    0.500       N(1)  =     2000
   RHO(2)=  100.500       N(2)  =     4000
 


--------------------------------------------------------------------------------------------------------


 ion  position               nearest neighbor table
   1  0.000  0.000  0.000-
   2  0.000  0.000  0.286-
 
  LATTYP: Found a simple orthorhombic cell.
 ALAT       =    10.1000000000
 B/A-ratio  =     1.0198019802
 C/A-ratio  =     1.0396039604
  
  Lattice vectors:
  
 A1 = (  10.1000000000,   0.0000000000,   0.0000000000)
 A2 = (   0.0000000000,  10.3000000000,   0.0000000000)
 A3 = (   0.0000000000,   0.0000000000,  10.5000000000)


Analysis of symmetry for initial positions (statically):
=====================================================================
 Subroutine PRICEL returns:
 Original cell was already a primitive cell.
 

 Routine SETGRP: Setting up the symmetry group for a 
 simple orthorhombic supercell.


 Subroutine GETGRP returns: Found  4 space group operations
 (whereof  4 operations were pure point group operations)
 out of a pool of  8 trial point group operations.


The static configuration has the point symmetry C_2v.


Analysis of symmetry for dynamics (positions and initial velocities):
=====================================================================
 Subroutine PRICEL returns:
 Original cell was already a primitive cell.
 

 Routine SETGRP: Setting up the symmetry group for a 
 simple orthorhombic supercell.


 Subroutine GETGRP returns: Found  4 space group operations
 (whereof  4 operations were pure point group operations)
 out of a pool of  8 trial point group operations.


The dynamic configuration has the point symmetry C_2v.


Analysis of constrained symmetry for selective dynamics:
=====================================================================
 Subroutine PRICEL returns:
 Original cell was already a primitive cell.
 

 Routine SETGRP: Setting up the symmetry group for a 
 simple orthorhombic supercell.


 Subroutine GETGRP returns: Found  4 space group operations
 (whereof  4 operations were pure point group operations)
 out of a pool of  8 trial point group operations.


The constrained configuration has the point symmetry C_2v.


 irot  :   1
 --------------------------------------------------------------------
 isymop:   1   0   0
           0   1   0
           0   0   1

 gtrans:     0.0000000     0.0000000     0.0000000

 ptrans:     0.0000000     0.0000000     0.0000000
 rotmap:
 (   1->   1)  (   2->   2) 


 irot  :   2
 --------------------------------------------------------------------
 isymop:  -1   0   0
           0  -1   0
           0   0   1

 gtrans:     0.0000000     0.0000000     0.0000000

 ptrans:     0.0000000     0.0000000     0.0000000
 rotmap:
 (   1->   1)  (   2->   2) 


 irot  :   3
 --------------------------------------------------------------------
 isymop:   1   0   0
           0  -1   0
           0   0   1

 gtrans:     0.0000000     0.0000000     0.0000000

 ptrans:     0.0000000     0.0000000     0.0000000
 rotmap:
 (   1->   1)  (   2->   2) 


 irot  :   4
 --------------------------------------------------------------------
 isymop:  -1   0   0
           0   1   0
           0   0   1

 gtrans:     0.0000000     0.0000000     0.0000000

 ptrans:     0.0000000     0.0000000     0.0000000
 rotmap:
 (   1->   1)  (   2->   2) 
 
 
 KPOINTS: Gamma-point only                        

Automatic generation of k-mesh.
Space group operators:
 irot       det(A)        alpha          n_x          n_y          n_z        tau_x        tau_y        tau_z
    1     1.000000     0.000000     1.000000     0.000000     0.000000     0.000000     0.000000     0.000000
    2     1.000000   180.000000     0.000000     0.000000     1.000000     0.000000     0.000000     0.000000
    3    -1.000000   180.000000     0.000000     1.000000     0.000000     0.000000     0.000000     0.000000
    4    -1.000000   180.000000     1.000000     0.000000     0.000000     0.000000     0.000000     0.000000
 
 Subroutine IBZKPT returns following result:
 ===========================================
 
 Found      1 irreducible k-points:
 
 Following reciprocal coordinates:
            Coordinates               Weight
  0.000000  0.000000  0.000000      1.000000
 
 Following cartesian coordinates:
            Coordinates               Weight
  0.000000  0.000000  0.000000      1.000000
 


--------------------------------------------------------------------------------------------------------




 Dimension of arrays:
   k-points           NKPTS =      1   k-points in BZ     NKDIM =      1   number of bands    NBANDS=      9
   number of dos      NEDOS =    301   number of ions     NIONS =      2
   non local maximal  LDIM  =      4   non local SUM 2l+1 LMDIM =      8
   total plane-waves  NPLWV = 135000
   max r-space proj   IRMAX =      1   max aug-charges    IRDMAX=   1803
   dimension x,y,z NGX =    50 NGY =   50 NGZ =   54
   dimension x,y,z NGXF=   100 NGYF=  100 NGZF=  108
   support grid    NGXF=   100 NGYF=  100 NGZF=  108
   ions per type =               1   1
 NGX,Y,Z   is equivalent  to a cutoff of   8.23,  8.07,  8.55 a.u.
 NGXF,Y,Z  is equivalent  to a cutoff of  16.46, 16.14, 17.10 a.u.


 I would recommend the setting:
   dimension x,y,z NGX =    49 NGY =   50 NGZ =   51
 SYSTEM =  Hello World                             
 POSCAR =  CO molecule in a box                    

 Startparameter for this run:
   NWRITE =      2    write-flag & timer
   PREC   = normal    normal or accurate (medium, high low for compatibility)
   ISTART =      0    job   : 0-new  1-cont  2-samecut
   ICHARG =      2    charge: 1-file 2-atom 10-const
   ISPIN  =      1    spin polarized calculation?
   LNONCOLLINEAR =      F non collinear calculations
   LSORBIT =      F    spin-orbit coupling
   INIWAV =      1    electr: 0-lowe 1-rand  2-diag
   LASPH  =      F    aspherical Exc in radial PAW
   METAGGA=      F    non-selfconsistent MetaGGA calc.

 Electronic Relaxation 1
   ENCUT  =  400.0 eV  29.40 Ry    5.42 a.u.  16.47 16.80 17.12*2*pi/ulx,y,z
   ENINI  =  400.0     initial cutoff
   ENAUG  =  644.9 eV  augmentation charge cutoff
   NELM   =     60;   NELMIN=  2; NELMDL=  0     # of ELM steps 
   EDIFF  = 0.1E-03   stopping-criterion for ELM
   LREAL  =      F    real-space projection
   NLSPLINE    = F    spline interpolate recip. space projectors
   LCOMPAT=      F    compatible to vasp.4.4
   GGA_COMPAT  = T    GGA compatible to vasp.4.4-vasp.4.6
   LMAXPAW     = -100 max onsite density
   LMAXMIX     =    2 max onsite mixed and CHGCAR
   VOSKOWN=      0    Vosko Wilk Nusair interpolation
   ROPT   =    0.00000   0.00000
 Ionic relaxation
   EDIFFG = -.1E-01   stopping-criterion for IOM
   NSW    =      0    number of steps for IOM
   NBLOCK =      1;   KBLOCK =      1    inner block; outer block 
   IBRION =     -1    ionic relax: 0-MD 1-quasi-New 2-CG
   NFREE  =      0    steps in history (QN), initial steepest desc. (CG)
   ISIF   =      2    stress and relaxation
   IWAVPR =     10    prediction:  0-non 1-charg 2-wave 3-comb
   ISYM   =      2    0-nonsym 1-usesym 2-fastsym
   LCORR  =      T    Harris-Foulkes like correction to forces

   POTIM  = 0.5000    time-step for ionic-motion
   TEIN   =    0.0    initial temperature
   TEBEG  =    0.0;   TEEND  =   0.0 temperature during run
   SMASS  =  -3.00    Nose mass-parameter (am)
   estimated Nose-frequenzy (Omega)   =  0.10E-29 period in steps =****** mass=  -0.233E-26a.u.
   SCALEE = 1.0000    scale energy and forces
   NPACO  =    256;   APACO  = 16.0  distance and # of slots for P.C.
   PSTRESS=    0.0 pullay stress

  Mass of Ions in am
   POMASS =  12.01 16.00
  Ionic Valenz
   ZVAL   =   4.00  6.00
  Atomic Wigner-Seitz radii
   RWIGS  =  -1.00 -1.00
  virtual crystal weights 
   VCA    =   1.00  1.00
   NELECT =      10.0000    total number of electrons
   NUPDOWN=      -1.0000    fix difference up-down

 DOS related values:
   EMIN   =  10.00;   EMAX   =-10.00  energy-range for DOS
   EFERMI =   0.00
   ISMEAR =     0;   SIGMA  =   0.20  broadening in eV -4-tet -1-fermi 0-gaus

 Electronic relaxation 2 (details)
   IALGO  =     68    algorithm
   LDIAG  =      T    sub-space diagonalisation (order eigenvalues)
   LSUBROT=      T    optimize rotation matrix (better conditioning)
   TURBO    =      0    0=normal 1=particle mesh
   IRESTART =      0    0=no restart 2=restart with 2 vectors
   NREBOOT  =      0    no. of reboots
   NMIN     =      0    reboot dimension
   EREF     =   0.00    reference energy to select bands
   IMIX   =      4    mixing-type and parameters
     AMIX     =   0.40;   BMIX     =  1.00
     AMIX_MAG =   1.60;   BMIX_MAG =  1.00
     AMIN     =   0.10
     WC   =   100.;   INIMIX=   1;  MIXPRE=   1;  MAXMIX= -45

 Intra band minimization:
   WEIMIN = 0.0000     energy-eigenvalue tresh-hold
   EBREAK =  0.28E-05  absolut break condition
   DEPER  =   0.30     relativ break condition  

   TIME   =   0.40     timestep for ELM

  volume/ion in A,a.u.               =     546.16      3685.65
  Fermi-wavevector in a.u.,A,eV,Ry     =   0.342472  0.647179  1.595791  0.117287
  Thomas-Fermi vector in A             =   1.247862
 
 Write flags
   LWAVE  =      F    write WAVECAR
   LCHARG =      F    write CHGCAR
   LVTOT  =      F    write LOCPOT, total local potential
   LVHAR  =      F    write LOCPOT, Hartree potential only
   LELF   =      F    write electronic localiz. function (ELF)
   LORBIT =      0    0 simple, 1 ext, 2 COOP (PROOUT)


 Dipole corrections
   LMONO  =      F    monopole corrections only (constant potential shift)
   LDIPOL =      F    correct potential (dipole corrections)
   IDIPOL =      0    1-x, 2-y, 3-z, 4-all directions 
   EPSILON=  1.0000000 bulk dielectric constant

 Exchange correlation treatment:
   GGA     =    --    GGA type
   LEXCH   =     8    internal setting for exchange type
   VOSKOWN=      0    Vosko Wilk Nusair interpolation
   LHFCALC =     F    Hartree Fock is set to
   LHFONE  =     F    Hartree Fock one center treatment
   AEXX    =    0.0000 exact exchange contribution

 Linear response parameters
   LEPSILON=     F    determine dielectric tensor
   LRPA    =     F    only Hartree local field effects (RPA)
   LNABLA  =     F    use nabla operator in PAW spheres
   LVEL    =     F    velocity operator in full k-point grid
   LINTERFAST=   F  fast interpolation
   KINTER  =     0    interpolate to denser k-point grid
   CSHIFT  =0.1000    complex shift for real part using Kramers Kronig
   OMEGAMAX=  -1.0    maximum frequency
   DEG_THRESHOLD= 0.2000000E-02 threshold for treating states as degnerate
   RTIME   =    0.100 relaxation time in fs

 Orbital magnetization related:
   ORBITALMAG=     F  switch on orbital magnetization
   LCHIMAG   =     F  perturbation theory with respect to B field
   DQ        =  0.001000  dq finite difference perturbation B field



--------------------------------------------------------------------------------------------------------


 Static calculation
 charge density and potential will be updated during run
 non-spin polarized calculation
 RMM-DIIS sequential band-by-band and
  variant of blocked Davidson during initial phase
 perform sub-space diagonalisation
    before iterative eigenvector-optimisation
 modified Broyden-mixing scheme, WC =      100.0
 initial mixing is a Kerker type mixing with AMIX =  0.4000 and BMIX =      1.0000
 Hartree-type preconditioning will be used
 using additional bands            4
 reciprocal scheme for non local part
 use partial core corrections
 calculate Harris-corrections to forces 
   (improved forces if not selfconsistent)
 use gradient corrections 
 use of overlap-Matrix (Vanderbilt PP)
 Gauss-broadening in eV      SIGMA  =   0.20


--------------------------------------------------------------------------------------------------------


  energy-cutoff  :      400.00
  volume of cell :     1092.32
      direct lattice vectors                 reciprocal lattice vectors
    10.100000000  0.000000000  0.000000000     0.099009901  0.000000000  0.000000000
     0.000000000 10.300000000  0.000000000     0.000000000  0.097087379  0.000000000
     0.000000000  0.000000000 10.500000000     0.000000000  0.000000000  0.095238095

  length of vectors
    10.100000000 10.300000000 10.500000000     0.099009901  0.097087379  0.095238095


 
 k-points in units of 2pi/SCALE and weight: Gamma-point only                        
   0.00000000  0.00000000  0.00000000       1.000
 
 k-points in reciprocal lattice and weights: Gamma-point only                        
   0.00000000  0.00000000  0.00000000       1.000
 
 position of ions in fractional coordinates (direct lattice) 
   0.00000000  0.00000000  0.00000000
   0.00000000  0.00000000  0.28571429
 
 position of ions in cartesian coordinates  (Angst):
   0.00000000  0.00000000  0.00000000
   0.00000000  0.00000000  3.00000000
 


--------------------------------------------------------------------------------------------------------


 k-point  1 :   0.0000 0.0000 0.0000  plane waves:   19819

 maximum and minimum number of plane-waves per node :     19819    19819

 maximum number of plane-waves:     19819
 maximum index in each direction: 
   IXMAX=   16   IYMAX=   16   IZMAX=   17
   IXMIN=  -16   IYMIN=  -16   IZMIN=  -17

 WARNING: aliasing errors must be expected set NGX to  66 to avoid them
 WARNING: aliasing errors must be expected set NGY to  66 to avoid them
 WARNING: aliasing errors must be expected set NGZ to  70 to avoid them
 aliasing errors are usually negligible using standard VASP settings
 and one can safely disregard these warnings

 serial   3D FFT for wavefunctions
 parallel 3D FFT for charge:
    minimum data exchange during FFTs selected (reduces bandwidth)


 total amount of memory used by VASP on root node   140193. kBytes
========================================================================

   base      :      30000. kBytes
   nonl-proj :       3171. kBytes
   fftplans  :      37440. kBytes
   grid      :      66720. kBytes
   one-center:          6. kBytes
   wavefun   :       2856. kBytes
 
 Broyden mixing: mesh for mixing (old mesh)
   NGX = 33   NGY = 33   NGZ = 35
  (NGX  =100   NGY  =100   NGZ  =108)
  gives a total of  38115 points

 initial charge density was supplied:
 charge density of overlapping atoms calculated
 number of electron      10.0000000 magnetization 
 keeping initial charge density in first step


--------------------------------------------------------------------------------------------------------


 Maximum index for augmentation-charges         1555 (set IRDMAX)


--------------------------------------------------------------------------------------------------------


 First call to EWALD:  gamma=   0.172
 Maximum number of real-space cells 3x 3x 3
 Maximum number of reciprocal cells 3x 3x 3

 FEWALD executed in parallel
    FEWALD:  cpu time    0.00: real time    0.00


----------------------------------------- Iteration    1(   1)  ---------------------------------------


    POTLOK:  cpu time    1.24: real time    1.24
    SETDIJ:  cpu time    0.01: real time    0.01
     EDDAV:  cpu time    0.82: real time    0.84
       DOS:  cpu time    0.00: real time    0.00
    --------------------------------------------
      LOOP:  cpu time    2.06: real time    2.09

 eigenvalue-minimisations  :    26
 total energy-change (2. order) : 0.5271011E+02  (-0.1921063E+03)
 number of electron      10.0000000 magnetization 
 augmentation part       10.0000000 magnetization 

 Free energy of the ion-electron system (eV)
  ---------------------------------------------------
  alpha Z        PSCENC =         0.40002888
  Ewald energy   TEWEN  =       -76.89880732
  -1/2 Hartree   DENC   =      -416.79843557
  -exchange  EXHF       =         0.00000000
  -V(xc)+E(xc)   XCENC  =        36.72203145
  PAW double counting   =       455.07152327     -457.43959975
  entropy T*S    EENTRO =        -0.00009415
  eigenvalues    EBANDS =       -67.73696117
  atomic energy  EATOM  =       579.39041991
  ---------------------------------------------------
  free energy    TOTEN  =        52.71010555 eV

  energy without entropy =       52.71019970  energy(sigma->0) =       52.71015262


--------------------------------------------------------------------------------------------------------




----------------------------------------- Iteration    1(   2)  ---------------------------------------


     EDDAV:  cpu time    1.05: real time    1.05
       DOS:  cpu time    0.00: real time    0.00
    --------------------------------------------
      LOOP:  cpu time    1.05: real time    1.05

 eigenvalue-minimisations  :    35
 total energy-change (2. order) :-0.4591273E+02  (-0.4574747E+02)
 number of electron      10.0000000 magnetization 
 augmentation part       10.0000000 magnetization 

 Free energy of the ion-electron system (eV)
  ---------------------------------------------------
  alpha Z        PSCENC =         0.40002888
  Ewald energy   TEWEN  =       -76.89880732
  -1/2 Hartree   DENC   =      -416.79843557
  -exchange  EXHF       =         0.00000000
  -V(xc)+E(xc)   XCENC  =        36.72203145
  PAW double counting   =       455.07152327     -457.43959975
  entropy T*S    EENTRO =        -0.00000000
  eigenvalues    EBANDS =      -113.64978918
  atomic energy  EATOM  =       579.39041991
  ---------------------------------------------------
  free energy    TOTEN  =         6.79737170 eV

  energy without entropy =        6.79737170  energy(sigma->0) =        6.79737170


--------------------------------------------------------------------------------------------------------




----------------------------------------- Iteration    1(   3)  ---------------------------------------


     EDDAV:  cpu time    0.68: real time    0.68
       DOS:  cpu time    0.00: real time    0.00
    --------------------------------------------
      LOOP:  cpu time    0.68: real time    0.68

 eigenvalue-minimisations  :    20
 total energy-change (2. order) :-0.1380525E+02  (-0.1380390E+02)
 number of electron      10.0000000 magnetization 
 augmentation part       10.0000000 magnetization 

 Free energy of the ion-electron system (eV)
  ---------------------------------------------------
  alpha Z        PSCENC =         0.40002888
  Ewald energy   TEWEN  =       -76.89880732
  -1/2 Hartree   DENC   =      -416.79843557
  -exchange  EXHF       =         0.00000000
  -V(xc)+E(xc)   XCENC  =        36.72203145
  PAW double counting   =       455.07152327     -457.43959975
  entropy T*S    EENTRO =        -0.00000000
  eigenvalues    EBANDS =      -127.45504057
  atomic energy  EATOM  =       579.39041991
  ---------------------------------------------------
  free energy    TOTEN  =        -7.00787970 eV

  energy without entropy =       -7.00787970  energy(sigma->0) =       -7.00787970


--------------------------------------------------------------------------------------------------------




----------------------------------------- Iteration    1(   4)  ---------------------------------------


     EDDAV:  cpu time    0.66: real time    0.66
       DOS:  cpu time    0.00: real time    0.00
    --------------------------------------------
      LOOP:  cpu time    0.66: real time    0.66

 eigenvalue-minimisations  :    18
 total energy-change (2. order) :-0.5655355E+00  (-0.5655140E+00)
 number of electron      10.0000000 magnetization 
 augmentation part       10.0000000 magnetization 

 Free energy of the ion-electron system (eV)
  ---------------------------------------------------
  alpha Z        PSCENC =         0.40002888
  Ewald energy   TEWEN  =       -76.89880732
  -1/2 Hartree   DENC   =      -416.79843557
  -exchange  EXHF       =         0.00000000
  -V(xc)+E(xc)   XCENC  =        36.72203145
  PAW double counting   =       455.07152327     -457.43959975
  entropy T*S    EENTRO =        -0.00000000
  eigenvalues    EBANDS =      -128.02057604
  atomic energy  EATOM  =       579.39041991
  ---------------------------------------------------
  free energy    TOTEN  =        -7.57341517 eV

  energy without entropy =       -7.57341517  energy(sigma->0) =       -7.57341517


--------------------------------------------------------------------------------------------------------




----------------------------------------- Iteration    1(   5)  ---------------------------------------


     EDDAV:  cpu time    0.82: real time    0.82
       DOS:  cpu time    0.00: real time    0.00
    CHARGE:  cpu time    0.13: real time    0.13
    MIXING:  cpu time    0.04: real time    0.04
    --------------------------------------------
      LOOP:  cpu time    1.00: real time    1.00

 eigenvalue-minimisations  :    26
 total energy-change (2. order) :-0.1432046E-01  (-0.1432046E-01)
 number of electron      10.0000068 magnetization 
 augmentation part        0.7837264 magnetization 

 Broyden mixing:
  rms(total) = 0.14138E+01    rms(broyden)= 0.14133E+01
  rms(prec ) = 0.23331E+01
  weight for this iteration     100.00

 Free energy of the ion-electron system (eV)
  ---------------------------------------------------
  alpha Z        PSCENC =         0.40002888
  Ewald energy   TEWEN  =       -76.89880732
  -1/2 Hartree   DENC   =      -416.79843557
  -exchange  EXHF       =         0.00000000
  -V(xc)+E(xc)   XCENC  =        36.72203145
  PAW double counting   =       455.07152327     -457.43959975
  entropy T*S    EENTRO =        -0.00000000
  eigenvalues    EBANDS =      -128.03489650
  atomic energy  EATOM  =       579.39041991
  ---------------------------------------------------
  free energy    TOTEN  =        -7.58773562 eV

  energy without entropy =       -7.58773562  energy(sigma->0) =       -7.58773562


--------------------------------------------------------------------------------------------------------




----------------------------------------- Iteration    1(   6)  ---------------------------------------


    POTLOK:  cpu time    1.16: real time    1.16
    SETDIJ:  cpu time    0.00: real time    0.01
    EDDIAG:  cpu time    0.14: real time    0.14
  RMM-DIIS:  cpu time    0.59: real time    0.59
    ORTHCH:  cpu time    0.01: real time    0.01
       DOS:  cpu time    0.00: real time    0.00
    CHARGE:  cpu time    0.12: real time    0.13
    MIXING:  cpu time    0.05: real time    0.04
    --------------------------------------------
      LOOP:  cpu time    2.07: real time    2.07

 eigenvalue-minimisations  :    20
 total energy-change (2. order) :-0.2918524E+02  (-0.1973235E+01)
 number of electron       9.9999965 magnetization 
 augmentation part       -0.0309055 magnetization 

 Broyden mixing:
  rms(total) = 0.37151E+01    rms(broyden)= 0.37133E+01
  rms(prec ) = 0.58837E+01
  weight for this iteration     100.00

 eigenvalues of (default mixing * dielectric matrix)
  average eigenvalue GAMMA=   0.2734
  0.2734

 Free energy of the ion-electron system (eV)
  ---------------------------------------------------
  alpha Z        PSCENC =         0.40002888
  Ewald energy   TEWEN  =       -76.89880732
  -1/2 Hartree   DENC   =      -450.75347152
  -exchange  EXHF       =         0.00000000
  -V(xc)+E(xc)   XCENC  =        38.34062830
  PAW double counting   =       519.97976149     -522.73328092
  entropy T*S    EENTRO =        -0.00000000
  eigenvalues    EBANDS =      -124.49825508
  atomic energy  EATOM  =       579.39041991
  ---------------------------------------------------
  free energy    TOTEN  =       -36.77297627 eV

  energy without entropy =      -36.77297627  energy(sigma->0) =      -36.77297627


--------------------------------------------------------------------------------------------------------




----------------------------------------- Iteration    1(   7)  ---------------------------------------


    POTLOK:  cpu time    1.09: real time    1.09
    SETDIJ:  cpu time    0.00: real time    0.01
    EDDIAG:  cpu time    0.12: real time    0.12
  RMM-DIIS:  cpu time    0.46: real time    0.46
    ORTHCH:  cpu time    0.00: real time    0.01
       DOS:  cpu time    0.00: real time    0.00
    CHARGE:  cpu time    0.13: real time    0.14
    MIXING:  cpu time    0.04: real time    0.04
    --------------------------------------------
      LOOP:  cpu time    1.86: real time    1.86

 eigenvalue-minimisations  :    19
 total energy-change (2. order) : 0.3476596E+02  (-0.9792437E+00)
 number of electron      10.0000044 magnetization 
 augmentation part        0.4763218 magnetization 

 Broyden mixing:
  rms(total) = 0.30878E+00    rms(broyden)= 0.29960E+00
  rms(prec ) = 0.42085E+00
  weight for this iteration     100.00

 eigenvalues of (default mixing * dielectric matrix)
  average eigenvalue GAMMA=   0.2038
  0.2631  0.1446

 Free energy of the ion-electron system (eV)
  ---------------------------------------------------
  alpha Z        PSCENC =         0.40002888
  Ewald energy   TEWEN  =       -76.89880732
  -1/2 Hartree   DENC   =      -427.91149225
  -exchange  EXHF       =         0.00000000
  -V(xc)+E(xc)   XCENC  =        37.33174783
  PAW double counting   =       480.66881991     -483.19884259
  entropy T*S    EENTRO =        -0.14203471
  eigenvalues    EBANDS =      -111.64686061
  atomic energy  EATOM  =       579.39041991
  ---------------------------------------------------
  free energy    TOTEN  =        -2.00702094 eV

  energy without entropy =       -1.86498623  energy(sigma->0) =       -1.93600358


--------------------------------------------------------------------------------------------------------




----------------------------------------- Iteration    1(   8)  ---------------------------------------


    POTLOK:  cpu time    1.04: real time    1.05
    SETDIJ:  cpu time    0.00: real time    0.01
    EDDIAG:  cpu time    0.12: real time    0.12
  RMM-DIIS:  cpu time    0.67: real time    0.67
    ORTHCH:  cpu time    0.01: real time    0.01
       DOS:  cpu time    0.00: real time    0.00
    CHARGE:  cpu time    0.16: real time    0.16
    MIXING:  cpu time    0.06: real time    0.06
    --------------------------------------------
      LOOP:  cpu time    2.06: real time    2.07

 eigenvalue-minimisations  :    22
 total energy-change (2. order) :-0.2861454E-01  (-0.2757835E-01)
 number of electron      10.0000045 magnetization 
 augmentation part        0.5053023 magnetization 

 Broyden mixing:
  rms(total) = 0.25656E+00    rms(broyden)= 0.25607E+00
  rms(prec ) = 0.44178E+00
  weight for this iteration     100.00

 eigenvalues of (default mixing * dielectric matrix)
  average eigenvalue GAMMA=   0.5175
  0.6179  0.6179  0.3167

 Free energy of the ion-electron system (eV)
  ---------------------------------------------------
  alpha Z        PSCENC =         0.40002888
  Ewald energy   TEWEN  =       -76.89880732
  -1/2 Hartree   DENC   =      -427.30007201
  -exchange  EXHF       =         0.00000000
  -V(xc)+E(xc)   XCENC  =        37.23538484
  PAW double counting   =       479.50274928     -482.01331097
  entropy T*S    EENTRO =        -0.18038147
  eigenvalues    EBANDS =      -112.17164662
  atomic energy  EATOM  =       579.39041991
  ---------------------------------------------------
  free energy    TOTEN  =        -2.03563548 eV

  energy without entropy =       -1.85525401  energy(sigma->0) =       -1.94544474


--------------------------------------------------------------------------------------------------------




----------------------------------------- Iteration    1(   9)  ---------------------------------------


    POTLOK:  cpu time    1.23: real time    1.23
    SETDIJ:  cpu time    0.00: real time    0.01
    EDDIAG:  cpu time    0.14: real time    0.14
  RMM-DIIS:  cpu time    0.65: real time    0.65
    ORTHCH:  cpu time    0.01: real time    0.01
       DOS:  cpu time    0.00: real time    0.00
    CHARGE:  cpu time    0.16: real time    0.16
    MIXING:  cpu time    0.06: real time    0.06
    --------------------------------------------
      LOOP:  cpu time    2.25: real time    2.25

 eigenvalue-minimisations  :    20
 total energy-change (2. order) :-0.3337457E+01  (-0.3307624E-01)
 number of electron       9.9999965 magnetization 
 augmentation part       -0.0432566 magnetization 

 Broyden mixing:
  rms(total) = 0.29273E+01    rms(broyden)= 0.29256E+01
  rms(prec ) = 0.47623E+01
  weight for this iteration     100.00

 eigenvalues of (default mixing * dielectric matrix)
  average eigenvalue GAMMA=   0.5859
  0.8549  0.8549  0.3169  0.3169

 Free energy of the ion-electron system (eV)
  ---------------------------------------------------
  alpha Z        PSCENC =         0.40002888
  Ewald energy   TEWEN  =       -76.89880732
  -1/2 Hartree   DENC   =      -428.66758599
  -exchange  EXHF       =         0.00000000
  -V(xc)+E(xc)   XCENC  =        37.18521794
  PAW double counting   =       482.00094331     -484.45880542
  entropy T*S    EENTRO =        -0.00026868
  eigenvalues    EBANDS =      -114.32423507
  atomic energy  EATOM  =       579.39041991
  ---------------------------------------------------
  free energy    TOTEN  =        -5.37309243 eV

  energy without entropy =       -5.37282376  energy(sigma->0) =       -5.37295809


--------------------------------------------------------------------------------------------------------




----------------------------------------- Iteration    1(  10)  ---------------------------------------


    POTLOK:  cpu time    1.23: real time    1.23
    SETDIJ:  cpu time    0.00: real time    0.01
    EDDIAG:  cpu time    0.12: real time    0.12
  RMM-DIIS:  cpu time    0.55: real time    0.55
    ORTHCH:  cpu time    0.01: real time    0.01
       DOS:  cpu time    0.00: real time    0.00
    CHARGE:  cpu time    0.14: real time    0.14
    MIXING:  cpu time    0.05: real time    0.05
    --------------------------------------------
      LOOP:  cpu time    2.11: real time    2.11

 eigenvalue-minimisations  :    19
 total energy-change (2. order) : 0.8379146E+00  (-0.1919625E+00)
 number of electron      10.0000066 magnetization 
 augmentation part        0.7367942 magnetization 

 Broyden mixing:
  rms(total) = 0.12401E+01    rms(broyden)= 0.12361E+01
  rms(prec ) = 0.20688E+01
  weight for this iteration     100.00

 eigenvalues of (default mixing * dielectric matrix)
  average eigenvalue GAMMA=   0.7771
  1.7971  0.7730  0.7730  0.2712  0.2712

 Free energy of the ion-electron system (eV)
  ---------------------------------------------------
  alpha Z        PSCENC =         0.40002888
  Ewald energy   TEWEN  =       -76.89880732
  -1/2 Hartree   DENC   =      -420.39692563
  -exchange  EXHF       =         0.00000000
  -V(xc)+E(xc)   XCENC  =        36.87686177
  PAW double counting   =       467.59070971     -469.96207216
  entropy T*S    EENTRO =        -0.00000000
  eigenvalues    EBANDS =      -121.53539302
  atomic energy  EATOM  =       579.39041991
  ---------------------------------------------------
  free energy    TOTEN  =        -4.53517787 eV

  energy without entropy =       -4.53517787  energy(sigma->0) =       -4.53517787


--------------------------------------------------------------------------------------------------------




----------------------------------------- Iteration    1(  11)  ---------------------------------------


    POTLOK:  cpu time    1.12: real time    1.13
    SETDIJ:  cpu time    0.00: real time    0.01
    EDDIAG:  cpu time    0.13: real time    0.12
  RMM-DIIS:  cpu time    0.61: real time    0.61
    ORTHCH:  cpu time    0.01: real time    0.01
       DOS:  cpu time    0.00: real time    0.00
    CHARGE:  cpu time    0.12: real time    0.12
    MIXING:  cpu time    0.06: real time    0.05
    --------------------------------------------
      LOOP:  cpu time    2.04: real time    2.05

 eigenvalue-minimisations  :    23
 total energy-change (2. order) :-0.1504216E+01  (-0.4030378E-01)
 number of electron      10.0000067 magnetization 
 augmentation part        0.7698898 magnetization 

 Broyden mixing:
  rms(total) = 0.13792E+01    rms(broyden)= 0.13790E+01
  rms(prec ) = 0.22515E+01
  weight for this iteration     100.00

 eigenvalues of (default mixing * dielectric matrix)
  average eigenvalue GAMMA=   0.7733
  1.9827  0.8114  0.8114  0.2675  0.2675  0.4995

 Free energy of the ion-electron system (eV)
  ---------------------------------------------------
  alpha Z        PSCENC =         0.40002888
  Ewald energy   TEWEN  =       -76.89880732
  -1/2 Hartree   DENC   =      -418.19292913
  -exchange  EXHF       =         0.00000000
  -V(xc)+E(xc)   XCENC  =        36.72005008
  PAW double counting   =       464.88370219     -467.22046058
  entropy T*S    EENTRO =        -0.00000000
  eigenvalues    EBANDS =      -125.12139816
  atomic energy  EATOM  =       579.39041991
  ---------------------------------------------------
  free energy    TOTEN  =        -6.03939415 eV

  energy without entropy =       -6.03939415  energy(sigma->0) =       -6.03939415


--------------------------------------------------------------------------------------------------------




----------------------------------------- Iteration    1(  12)  ---------------------------------------


    POTLOK:  cpu time    1.06: real time    1.06
    SETDIJ:  cpu time    0.00: real time    0.01
    EDDIAG:  cpu time    0.12: real time    0.12
  RMM-DIIS:  cpu time    0.49: real time    0.49
    ORTHCH:  cpu time    0.01: real time    0.01
       DOS:  cpu time    0.00: real time    0.00
    CHARGE:  cpu time    0.10: real time    0.10
    MIXING:  cpu time    0.05: real time    0.05
    --------------------------------------------
      LOOP:  cpu time    1.84: real time    1.84

 eigenvalue-minimisations  :    20
 total energy-change (2. order) : 0.5350003E+00  (-0.1225129E-02)
 number of electron      10.0000067 magnetization 
 augmentation part        0.7664660 magnetization 

 Broyden mixing:
  rms(total) = 0.13575E+01    rms(broyden)= 0.13575E+01
  rms(prec ) = 0.22180E+01
  weight for this iteration     100.00

 eigenvalues of (default mixing * dielectric matrix)
  average eigenvalue GAMMA=   0.8870
  2.4057  0.8645  0.8645  0.7693  0.7693  0.2678  0.2678

 Free energy of the ion-electron system (eV)
  ---------------------------------------------------
  alpha Z        PSCENC =         0.40002888
  Ewald energy   TEWEN  =       -76.89880732
  -1/2 Hartree   DENC   =      -419.32159495
  -exchange  EXHF       =         0.00000000
  -V(xc)+E(xc)   XCENC  =        36.78691172
  PAW double counting   =       468.08835251     -470.44273921
  entropy T*S    EENTRO =        -0.00000000
  eigenvalues    EBANDS =      -123.50696535
  atomic energy  EATOM  =       579.39041991
  ---------------------------------------------------
  free energy    TOTEN  =        -5.50439382 eV

  energy without entropy =       -5.50439382  energy(sigma->0) =       -5.50439382


--------------------------------------------------------------------------------------------------------




----------------------------------------- Iteration    1(  13)  ---------------------------------------


    POTLOK:  cpu time    1.09: real time    1.09
    SETDIJ:  cpu time    0.00: real time    0.01
    EDDIAG:  cpu time    0.15: real time    0.15
  RMM-DIIS:  cpu time    0.62: real time    0.62
    ORTHCH:  cpu time    0.01: real time    0.01
       DOS:  cpu time    0.00: real time    0.00
    CHARGE:  cpu time    0.16: real time    0.17
    MIXING:  cpu time    0.08: real time    0.08
    --------------------------------------------
      LOOP:  cpu time    2.11: real time    2.12

 eigenvalue-minimisations  :    19
 total energy-change (2. order) : 0.1611192E+01  (-0.1709482E-01)
 number of electron      10.0000066 magnetization 
 augmentation part        0.7344321 magnetization 

 Broyden mixing:
  rms(total) = 0.12204E+01    rms(broyden)= 0.12203E+01
  rms(prec ) = 0.20196E+01
  weight for this iteration     100.00

 eigenvalues of (default mixing * dielectric matrix)
  average eigenvalue GAMMA=   1.0791
  2.5470  2.3087  0.9031  0.9031  0.7175  0.7175  0.2678  0.2678

 Free energy of the ion-electron system (eV)
  ---------------------------------------------------
  alpha Z        PSCENC =         0.40002888
  Ewald energy   TEWEN  =       -76.89880732
  -1/2 Hartree   DENC   =      -422.37403498
  -exchange  EXHF       =         0.00000000
  -V(xc)+E(xc)   XCENC  =        36.93438551
  PAW double counting   =       475.29370731     -477.68540443
  entropy T*S    EENTRO =        -0.00000000
  eigenvalues    EBANDS =      -118.95349627
  atomic energy  EATOM  =       579.39041991
  ---------------------------------------------------
  free energy    TOTEN  =        -3.89320140 eV

  energy without entropy =       -3.89320140  energy(sigma->0) =       -3.89320140


--------------------------------------------------------------------------------------------------------




----------------------------------------- Iteration    1(  14)  ---------------------------------------


    POTLOK:  cpu time    1.29: real time    1.29
    SETDIJ:  cpu time    0.00: real time    0.01
    EDDIAG:  cpu time    0.15: real time    0.15
  RMM-DIIS:  cpu time    0.65: real time    0.65
    ORTHCH:  cpu time    0.01: real time    0.01
       DOS:  cpu time    0.00: real time    0.00
    CHARGE:  cpu time    0.16: real time    0.16
    MIXING:  cpu time    0.08: real time    0.08
    --------------------------------------------
      LOOP:  cpu time    2.34: real time    2.34

 eigenvalue-minimisations  :    19
 total energy-change (2. order) : 0.6986413E+00  (-0.3629989E-02)
 number of electron      10.0000065 magnetization 
 augmentation part        0.7137701 magnetization 

 Broyden mixing:
  rms(total) = 0.11354E+01    rms(broyden)= 0.11353E+01
  rms(prec ) = 0.18837E+01
  weight for this iteration     100.00

 eigenvalues of (default mixing * dielectric matrix)
  average eigenvalue GAMMA=   0.9722
  2.5689  2.3578  0.9040  0.9040  0.7038  0.7038  0.2678  0.2678  0.0715

 Free energy of the ion-electron system (eV)
  ---------------------------------------------------
  alpha Z        PSCENC =         0.40002888
  Ewald energy   TEWEN  =       -76.89880732
  -1/2 Hartree   DENC   =      -423.14057608
  -exchange  EXHF       =         0.00000000
  -V(xc)+E(xc)   XCENC  =        36.94873504
  PAW double counting   =       476.36362775     -478.74950474
  entropy T*S    EENTRO =        -0.00000579
  eigenvalues    EBANDS =      -117.50847774
  atomic energy  EATOM  =       579.39041991
  ---------------------------------------------------
  free energy    TOTEN  =        -3.19456010 eV

  energy without entropy =       -3.19455430  energy(sigma->0) =       -3.19455720


--------------------------------------------------------------------------------------------------------




----------------------------------------- Iteration    1(  15)  ---------------------------------------


    POTLOK:  cpu time    1.20: real time    1.20
    SETDIJ:  cpu time    0.01: real time    0.01
    EDDIAG:  cpu time    0.12: real time    0.12
  RMM-DIIS:  cpu time    0.45: real time    0.45
    ORTHCH:  cpu time    0.01: real time    0.01
       DOS:  cpu time    0.00: real time    0.00
    CHARGE:  cpu time    0.12: real time    0.13
    MIXING:  cpu time    0.06: real time    0.06
    --------------------------------------------
      LOOP:  cpu time    1.97: real time    1.97

 eigenvalue-minimisations  :    19
 total energy-change (2. order) :-0.5850379E+00  (-0.8636440E-03)
 number of electron      10.0000066 magnetization 
 augmentation part        0.7287303 magnetization 

 Broyden mixing:
  rms(total) = 0.12035E+01    rms(broyden)= 0.12035E+01
  rms(prec ) = 0.19934E+01
  weight for this iteration     100.00

 eigenvalues of (default mixing * dielectric matrix)
  average eigenvalue GAMMA=   1.2096
  3.0210  3.0210  1.2501  0.9248  0.9248  0.8703  0.8703  0.6785  0.2678  0.2678

 Free energy of the ion-electron system (eV)
  ---------------------------------------------------
  alpha Z        PSCENC =         0.40002888
  Ewald energy   TEWEN  =       -76.89880732
  -1/2 Hartree   DENC   =      -422.62283288
  -exchange  EXHF       =         0.00000000
  -V(xc)+E(xc)   XCENC  =        36.95044160
  PAW double counting   =       476.31824932     -478.70887002
  entropy T*S    EENTRO =        -0.00000001
  eigenvalues    EBANDS =      -118.60822752
  atomic energy  EATOM  =       579.39041991
  ---------------------------------------------------
  free energy    TOTEN  =        -3.77959803 eV

  energy without entropy =       -3.77959803  energy(sigma->0) =       -3.77959803


--------------------------------------------------------------------------------------------------------




----------------------------------------- Iteration    1(  16)  ---------------------------------------


    POTLOK:  cpu time    1.04: real time    1.05
    SETDIJ:  cpu time    0.00: real time    0.01
    EDDIAG:  cpu time    0.13: real time    0.13
  RMM-DIIS:  cpu time    0.52: real time    0.52
    ORTHCH:  cpu time    0.00: real time    0.01
       DOS:  cpu time    0.00: real time    0.00
    CHARGE:  cpu time    0.12: real time    0.12
    MIXING:  cpu time    0.07: real time    0.07
    --------------------------------------------
      LOOP:  cpu time    1.90: real time    1.90

 eigenvalue-minimisations  :    20
 total energy-change (2. order) :-0.3117391E+00  (-0.3905784E-03)
 number of electron      10.0000066 magnetization 
 augmentation part        0.7346765 magnetization 

 Broyden mixing:
  rms(total) = 0.12307E+01    rms(broyden)= 0.12307E+01
  rms(prec ) = 0.20360E+01
  weight for this iteration     100.00

 eigenvalues of (default mixing * dielectric matrix)
  average eigenvalue GAMMA=   1.2105
  3.1463  3.1463  1.1541  1.1541  0.9031  0.9031  0.8456  0.8456  0.6816  0.2678
  0.2678

 Free energy of the ion-electron system (eV)
  ---------------------------------------------------
  alpha Z        PSCENC =         0.40002888
  Ewald energy   TEWEN  =       -76.89880732
  -1/2 Hartree   DENC   =      -422.51915670
  -exchange  EXHF       =         0.00000000
  -V(xc)+E(xc)   XCENC  =        36.96342172
  PAW double counting   =       476.89944199     -479.29735982
  entropy T*S    EENTRO =        -0.00000000
  eigenvalues    EBANDS =      -119.02932578
  atomic energy  EATOM  =       579.39041991
  ---------------------------------------------------
  free energy    TOTEN  =        -4.09133712 eV

  energy without entropy =       -4.09133712  energy(sigma->0) =       -4.09133712


--------------------------------------------------------------------------------------------------------




----------------------------------------- Iteration    1(  17)  ---------------------------------------


    POTLOK:  cpu time    1.15: real time    1.15
    SETDIJ:  cpu time    0.00: real time    0.01
    EDDIAG:  cpu time    0.14: real time    0.14
  RMM-DIIS:  cpu time    0.63: real time    0.63
    ORTHCH:  cpu time    0.01: real time    0.01
       DOS:  cpu time    0.00: real time    0.00
    CHARGE:  cpu time    0.13: real time    0.13
    MIXING:  cpu time    0.09: real time    0.09
    --------------------------------------------
      LOOP:  cpu time    2.15: real time    2.16

 eigenvalue-minimisations  :    19
 total energy-change (2. order) :-0.9002231E+00  (-0.2344248E-02)
 number of electron      10.0000066 magnetization 
 augmentation part        0.7474375 magnetization 

 Broyden mixing:
  rms(total) = 0.12894E+01    rms(broyden)= 0.12893E+01
  rms(prec ) = 0.21296E+01
  weight for this iteration     100.00

 eigenvalues of (default mixing * dielectric matrix)
  average eigenvalue GAMMA=   1.3844
  5.0301  2.6464  1.7334  1.7334  0.9143  0.9143  0.8947  0.8947  0.2678  0.2678
  0.6577  0.6577

 Free energy of the ion-electron system (eV)
  ---------------------------------------------------
  alpha Z        PSCENC =         0.40002888
  Ewald energy   TEWEN  =       -76.89880732
  -1/2 Hartree   DENC   =      -422.18682078
  -exchange  EXHF       =         0.00000000
  -V(xc)+E(xc)   XCENC  =        37.00419265
  PAW double counting   =       478.46553677     -480.88130034
  entropy T*S    EENTRO =        -0.00000000
  eigenvalues    EBANDS =      -120.28480995
  atomic energy  EATOM  =       579.39041991
  ---------------------------------------------------
  free energy    TOTEN  =        -4.99156018 eV

  energy without entropy =       -4.99156018  energy(sigma->0) =       -4.99156018


--------------------------------------------------------------------------------------------------------




----------------------------------------- Iteration    1(  18)  ---------------------------------------


    POTLOK:  cpu time    1.18: real time    1.19
    SETDIJ:  cpu time    0.00: real time    0.01
    EDDIAG:  cpu time    0.14: real time    0.14
  RMM-DIIS:  cpu time    0.64: real time    0.64
    ORTHCH:  cpu time    0.01: real time    0.01
       DOS:  cpu time    0.00: real time    0.00
    CHARGE:  cpu time    0.12: real time    0.13
    MIXING:  cpu time    0.10: real time    0.10
    --------------------------------------------
      LOOP:  cpu time    2.20: real time    2.20

 eigenvalue-minimisations  :    19
 total energy-change (2. order) : 0.1779023E+00  (-0.4456276E-04)
 number of electron      10.0000066 magnetization 
 augmentation part        0.7460179 magnetization 

 Broyden mixing:
  rms(total) = 0.12819E+01    rms(broyden)= 0.12819E+01
  rms(prec ) = 0.21159E+01
  weight for this iteration     100.00

 eigenvalues of (default mixing * dielectric matrix)
  average eigenvalue GAMMA=   1.3276
  3.8493  2.8190  1.9491  1.4595  1.4595  0.9120  0.9120  0.9558  0.9558  0.7260
  0.7260  0.2678  0.2678

 Free energy of the ion-electron system (eV)
  ---------------------------------------------------
  alpha Z        PSCENC =         0.40002888
  Ewald energy   TEWEN  =       -76.89880732
  -1/2 Hartree   DENC   =      -422.25029290
  -exchange  EXHF       =         0.00000000
  -V(xc)+E(xc)   XCENC  =        36.99422247
  PAW double counting   =       478.03913275     -480.45287797
  entropy T*S    EENTRO =        -0.00000000
  eigenvalues    EBANDS =      -120.03548370
  atomic energy  EATOM  =       579.39041991
  ---------------------------------------------------
  free energy    TOTEN  =        -4.81365789 eV

  energy without entropy =       -4.81365789  energy(sigma->0) =       -4.81365789


--------------------------------------------------------------------------------------------------------




----------------------------------------- Iteration    1(  19)  ---------------------------------------


    POTLOK:  cpu time    1.25: real time    1.25
    SETDIJ:  cpu time    0.00: real time    0.01
    EDDIAG:  cpu time    0.14: real time    0.15
  RMM-DIIS:  cpu time    0.54: real time    0.53
    ORTHCH:  cpu time    0.01: real time    0.01
       DOS:  cpu time    0.00: real time    0.00
    CHARGE:  cpu time    0.14: real time    0.14
    MIXING:  cpu time    0.10: real time    0.10
    --------------------------------------------
      LOOP:  cpu time    2.18: real time    2.18

 eigenvalue-minimisations  :    19
 total energy-change (2. order) : 0.8809848E+00  (-0.1769596E-02)
 number of electron      10.0000066 magnetization 
 augmentation part        0.7326830 magnetization 

 Broyden mixing:
  rms(total) = 0.12228E+01    rms(broyden)= 0.12228E+01
  rms(prec ) = 0.20179E+01
  weight for this iteration     100.00

 eigenvalues of (default mixing * dielectric matrix)
  average eigenvalue GAMMA=   1.2117
  3.8711  2.8157  1.6023  1.4263  1.4263  0.9118  0.9118  0.9551  0.9551  0.7257
  0.7257  0.2678  0.2678  0.1019

 Free energy of the ion-electron system (eV)
  ---------------------------------------------------
  alpha Z        PSCENC =         0.40002888
  Ewald energy   TEWEN  =       -76.89880732
  -1/2 Hartree   DENC   =      -422.58345060
  -exchange  EXHF       =         0.00000000
  -V(xc)+E(xc)   XCENC  =        36.95578382
  PAW double counting   =       476.57339286     -478.97401254
  entropy T*S    EENTRO =        -0.00000000
  eigenvalues    EBANDS =      -118.79602809
  atomic energy  EATOM  =       579.39041991
  ---------------------------------------------------
  free energy    TOTEN  =        -3.93267308 eV

  energy without entropy =       -3.93267308  energy(sigma->0) =       -3.93267308


--------------------------------------------------------------------------------------------------------




----------------------------------------- Iteration    1(  20)  ---------------------------------------


    POTLOK:  cpu time    1.12: real time    1.12
    SETDIJ:  cpu time    0.00: real time    0.00
    EDDIAG:  cpu time    0.12: real time    0.12
  RMM-DIIS:  cpu time    0.51: real time    0.51
    ORTHCH:  cpu time    0.01: real time    0.01
       DOS:  cpu time    0.00: real time    0.00
    CHARGE:  cpu time    0.13: real time    0.13
    MIXING:  cpu time    0.09: real time    0.09
    --------------------------------------------
      LOOP:  cpu time    1.98: real time    1.99

 eigenvalue-minimisations  :    20
 total energy-change (2. order) : 0.6677572E+00  (-0.1041217E+00)
 number of electron       9.9999969 magnetization 
 augmentation part        0.0292713 magnetization 

 Broyden mixing:
  rms(total) = 0.24140E+01    rms(broyden)= 0.24107E+01
  rms(prec ) = 0.39598E+01
  weight for this iteration     100.00

 eigenvalues of (default mixing * dielectric matrix)
  average eigenvalue GAMMA=   1.2844
  4.3429  1.9430  1.9430  2.4830  1.2010  1.2010  0.9059  0.9059  0.9480  0.9480
  0.2678  0.2678  0.7228  0.7228  0.4629

 Free energy of the ion-electron system (eV)
  ---------------------------------------------------
  alpha Z        PSCENC =         0.40002888
  Ewald energy   TEWEN  =       -76.89880732
  -1/2 Hartree   DENC   =      -424.49841601
  -exchange  EXHF       =         0.00000000
  -V(xc)+E(xc)   XCENC  =        36.82896072
  PAW double counting   =       470.13511418     -472.50200006
  entropy T*S    EENTRO =        -0.05330992
  eigenvalues    EBANDS =      -116.06690623
  atomic energy  EATOM  =       579.39041991
  ---------------------------------------------------
  free energy    TOTEN  =        -3.26491585 eV

  energy without entropy =       -3.21160593  energy(sigma->0) =       -3.23826089


--------------------------------------------------------------------------------------------------------




----------------------------------------- Iteration    1(  21)  ---------------------------------------


    POTLOK:  cpu time    1.10: real time    1.10
    SETDIJ:  cpu time    0.01: real time    0.00
    EDDIAG:  cpu time    0.11: real time    0.11
  RMM-DIIS:  cpu time    0.50: real time    0.51
    ORTHCH:  cpu time    0.01: real time    0.01
       DOS:  cpu time    0.00: real time    0.00
    CHARGE:  cpu time    0.11: real time    0.11
    MIXING:  cpu time    0.10: real time    0.10
    --------------------------------------------
      LOOP:  cpu time    1.95: real time    1.95

 eigenvalue-minimisations  :    20
 total energy-change (2. order) :-0.9138100E+01  (-0.3263157E+00)
 number of electron      10.0000068 magnetization 
 augmentation part        0.7999570 magnetization 

 Broyden mixing:
  rms(total) = 0.15501E+01    rms(broyden)= 0.15468E+01
  rms(prec ) = 0.25308E+01
  weight for this iteration     100.00

 eigenvalues of (default mixing * dielectric matrix)
  average eigenvalue GAMMA=   1.2107
  4.3360  2.4799  1.9602  1.9602  1.2190  1.2190  0.9065  0.9065  0.9497  0.9497
  0.7241  0.7241  0.2678  0.2678  0.4400  0.0609

 Free energy of the ion-electron system (eV)
  ---------------------------------------------------
  alpha Z        PSCENC =         0.40002888
  Ewald energy   TEWEN  =       -76.89880732
  -1/2 Hartree   DENC   =      -418.79286284
  -exchange  EXHF       =         0.00000000
  -V(xc)+E(xc)   XCENC  =        37.17007144
  PAW double counting   =       484.51403203     -486.98674455
  entropy T*S    EENTRO =        -0.00000000
  eigenvalues    EBANDS =      -131.19915303
  atomic energy  EATOM  =       579.39041991
  ---------------------------------------------------
  free energy    TOTEN  =       -12.40301549 eV

  energy without entropy =      -12.40301549  energy(sigma->0) =      -12.40301549


--------------------------------------------------------------------------------------------------------




----------------------------------------- Iteration    1(  22)  ---------------------------------------


    POTLOK:  cpu time    1.07: real time    1.07
    SETDIJ:  cpu time    0.01: real time    0.00
    EDDIAG:  cpu time    0.12: real time    0.12
  RMM-DIIS:  cpu time    0.57: real time    0.57
    ORTHCH:  cpu time    0.01: real time    0.01
       DOS:  cpu time    0.00: real time    0.00
    CHARGE:  cpu time    0.16: real time    0.16
    MIXING:  cpu time    0.13: real time    0.13
    --------------------------------------------
      LOOP:  cpu time    2.06: real time    2.06

 eigenvalue-minimisations  :    19
 total energy-change (2. order) : 0.8239609E+01  (-0.1000925E+00)
 number of electron      10.0000067 magnetization 
 augmentation part        0.7476115 magnetization 

 Broyden mixing:
  rms(total) = 0.12686E+01    rms(broyden)= 0.12684E+01
  rms(prec ) = 0.20846E+01
  weight for this iteration     100.00

 eigenvalues of (default mixing * dielectric matrix)
  average eigenvalue GAMMA=   1.3817
  4.6850  2.6510  2.6510  2.5940  1.4896  1.4896  0.9160  0.9160  0.9914  0.9914
  0.2678  0.2678  0.7528  0.7528  0.7526  0.7526  0.5671

 Free energy of the ion-electron system (eV)
  ---------------------------------------------------
  alpha Z        PSCENC =         0.40002888
  Ewald energy   TEWEN  =       -76.89880732
  -1/2 Hartree   DENC   =      -421.05653472
  -exchange  EXHF       =         0.00000000
  -V(xc)+E(xc)   XCENC  =        36.81918379
  PAW double counting   =       470.86488743     -473.22874615
  entropy T*S    EENTRO =        -0.00000000
  eigenvalues    EBANDS =      -120.45383838
  atomic energy  EATOM  =       579.39041991
  ---------------------------------------------------
  free energy    TOTEN  =        -4.16340657 eV

  energy without entropy =       -4.16340657  energy(sigma->0) =       -4.16340657


--------------------------------------------------------------------------------------------------------




----------------------------------------- Iteration    1(  23)  ---------------------------------------


    POTLOK:  cpu time    1.27: real time    1.29
    SETDIJ:  cpu time    0.00: real time    0.01
    EDDIAG:  cpu time    0.15: real time    0.15
  RMM-DIIS:  cpu time    0.65: real time    0.66
    ORTHCH:  cpu time    0.01: real time    0.01
       DOS:  cpu time    0.00: real time    0.00
    CHARGE:  cpu time    0.16: real time    0.16
    MIXING:  cpu time    0.14: real time    0.14
    --------------------------------------------
      LOOP:  cpu time    2.39: real time    2.42

 eigenvalue-minimisations  :    20
 total energy-change (2. order) : 0.1557698E+01  (-0.1556564E-01)
 number of electron      10.0000065 magnetization 
 augmentation part        0.6953987 magnetization 

 Broyden mixing:
  rms(total) = 0.10511E+01    rms(broyden)= 0.10509E+01
  rms(prec ) = 0.17295E+01
  weight for this iteration     100.00

 eigenvalues of (default mixing * dielectric matrix)
  average eigenvalue GAMMA=   1.3736
  2.9314  2.9314  2.6253  2.6253  2.2015  2.2015  1.1086  1.1086  0.9299  0.9299
  0.8251  0.8251  0.2678  0.2678  0.8214  0.8214  0.7460  0.5568

 Free energy of the ion-electron system (eV)
  ---------------------------------------------------
  alpha Z        PSCENC =         0.40002888
  Ewald energy   TEWEN  =       -76.89880732
  -1/2 Hartree   DENC   =      -422.35111188
  -exchange  EXHF       =         0.00000000
  -V(xc)+E(xc)   XCENC  =        36.82437131
  PAW double counting   =       471.66178052     -474.01723925
  entropy T*S    EENTRO =        -0.00164122
  eigenvalues    EBANDS =      -117.61350920
  atomic energy  EATOM  =       579.39041991
  ---------------------------------------------------
  free energy    TOTEN  =        -2.60570825 eV

  energy without entropy =       -2.60406704  energy(sigma->0) =       -2.60488765


--------------------------------------------------------------------------------------------------------




----------------------------------------- Iteration    1(  24)  ---------------------------------------


    POTLOK:  cpu time    1.29: real time    1.29
    SETDIJ:  cpu time    0.00: real time    0.01
    EDDIAG:  cpu time    0.14: real time    0.14
  RMM-DIIS:  cpu time    0.63: real time    0.63
    ORTHCH:  cpu time    0.01: real time    0.01
       DOS:  cpu time    0.00: real time    0.00
    CHARGE:  cpu time    0.16: real time    0.16
    MIXING:  cpu time    0.15: real time    0.16
    --------------------------------------------
      LOOP:  cpu time    2.38: real time    2.39

 eigenvalue-minimisations  :    19
 total energy-change (2. order) : 0.5105220E+00  (-0.2109324E-01)
 number of electron      10.0000004 magnetization 
 augmentation part        0.2744500 magnetization 

 Broyden mixing:
  rms(total) = 0.11179E+01    rms(broyden)= 0.11148E+01
  rms(prec ) = 0.18166E+01
  weight for this iteration     100.00

 eigenvalues of (default mixing * dielectric matrix)
  average eigenvalue GAMMA=   1.3107
  2.9854  2.9854  2.5528  2.5528  2.3093  2.3093  1.0862  1.0862  0.9305  0.9305
  0.8277  0.8277  0.2678  0.2678  0.8218  0.8218  0.7393  0.5562  0.0450

 Free energy of the ion-electron system (eV)
  ---------------------------------------------------
  alpha Z        PSCENC =         0.40002888
  Ewald energy   TEWEN  =       -76.89880732
  -1/2 Hartree   DENC   =      -423.18715689
  -exchange  EXHF       =         0.00000000
  -V(xc)+E(xc)   XCENC  =        36.77833387
  PAW double counting   =       468.75454121     -471.09364656
  entropy T*S    EENTRO =        -0.31598842
  eigenvalues    EBANDS =      -115.92291091
  atomic energy  EATOM  =       579.39041991
  ---------------------------------------------------
  free energy    TOTEN  =        -2.09518623 eV

  energy without entropy =       -1.77919781  energy(sigma->0) =       -1.93719202


--------------------------------------------------------------------------------------------------------




----------------------------------------- Iteration    1(  25)  ---------------------------------------


    POTLOK:  cpu time    1.20: real time    1.20
    SETDIJ:  cpu time    0.00: real time    0.01
    EDDIAG:  cpu time    0.12: real time    0.13
  RMM-DIIS:  cpu time    0.46: real time    0.45
    ORTHCH:  cpu time    0.00: real time    0.01
       DOS:  cpu time    0.00: real time    0.00
    CHARGE:  cpu time    0.12: real time    0.12
    MIXING:  cpu time    0.12: real time    0.11
    --------------------------------------------
      LOOP:  cpu time    2.03: real time    2.03

 eigenvalue-minimisations  :    19
 total energy-change (2. order) :-0.2296558E+01  (-0.3195948E-01)
 number of electron      10.0000066 magnetization 
 augmentation part        0.7368867 magnetization 

 Broyden mixing:
  rms(total) = 0.12487E+01    rms(broyden)= 0.12471E+01
  rms(prec ) = 0.20601E+01
  weight for this iteration     100.00

 eigenvalues of (default mixing * dielectric matrix)
  average eigenvalue GAMMA=   1.3131
  3.0979  3.0979  2.9095  2.9095  2.3633  1.8986  0.9153  0.9153  1.0684  1.0684
  0.8164  0.8164  0.2678  0.2678  0.8417  0.8417  0.7437  0.5497  0.4364  0.4364

 Free energy of the ion-electron system (eV)
  ---------------------------------------------------
  alpha Z        PSCENC =         0.40002888
  Ewald energy   TEWEN  =       -76.89880732
  -1/2 Hartree   DENC   =      -421.93114868
  -exchange  EXHF       =         0.00000000
  -V(xc)+E(xc)   XCENC  =        36.91272034
  PAW double counting   =       476.16171320     -478.54945690
  entropy T*S    EENTRO =        -0.00000000
  eigenvalues    EBANDS =      -119.87721381
  atomic energy  EATOM  =       579.39041991
  ---------------------------------------------------
  free energy    TOTEN  =        -4.39174438 eV

  energy without entropy =       -4.39174438  energy(sigma->0) =       -4.39174438


--------------------------------------------------------------------------------------------------------




----------------------------------------- Iteration    1(  26)  ---------------------------------------


    POTLOK:  cpu time    1.06: real time    1.07
    SETDIJ:  cpu time    0.00: real time    0.01
    EDDIAG:  cpu time    0.12: real time    0.12
  RMM-DIIS:  cpu time    0.47: real time    0.47
    ORTHCH:  cpu time    0.01: real time    0.01
       DOS:  cpu time    0.00: real time    0.00
    CHARGE:  cpu time    0.13: real time    0.13
    MIXING:  cpu time    0.12: real time    0.12
    --------------------------------------------
      LOOP:  cpu time    1.92: real time    1.92

 eigenvalue-minimisations  :    19
 total energy-change (2. order) : 0.1837326E+01  (-0.5911567E-02)
 number of electron      10.0000065 magnetization 
 augmentation part        0.6873690 magnetization 

 Broyden mixing:
  rms(total) = 0.10252E+01    rms(broyden)= 0.10248E+01
  rms(prec ) = 0.16812E+01
  weight for this iteration     100.00

 eigenvalues of (default mixing * dielectric matrix)
  average eigenvalue GAMMA=   1.4867
  5.8990  3.1994  3.1994  2.7043  2.7043  1.9545  1.2218  1.2218  0.9006  0.9006
  0.9124  0.9124  0.2678  0.2678  0.8746  0.8746  0.7707  0.7707  0.5940  0.5350
  0.5350

 Free energy of the ion-electron system (eV)
  ---------------------------------------------------
  alpha Z        PSCENC =         0.40002888
  Ewald energy   TEWEN  =       -76.89880732
  -1/2 Hartree   DENC   =      -422.43795289
  -exchange  EXHF       =         0.00000000
  -V(xc)+E(xc)   XCENC  =        36.81906397
  PAW double counting   =       470.96765658     -473.31998256
  entropy T*S    EENTRO =        -0.00239317
  eigenvalues    EBANDS =      -117.47245167
  atomic energy  EATOM  =       579.39041991
  ---------------------------------------------------
  free energy    TOTEN  =        -2.55441828 eV

  energy without entropy =       -2.55202511  energy(sigma->0) =       -2.55322170


--------------------------------------------------------------------------------------------------------




----------------------------------------- Iteration    1(  27)  ---------------------------------------


    POTLOK:  cpu time    1.11: real time    1.11
    SETDIJ:  cpu time    0.00: real time    0.01
    EDDIAG:  cpu time    0.12: real time    0.12
  RMM-DIIS:  cpu time    0.50: real time    0.50
    ORTHCH:  cpu time    0.01: real time    0.01
       DOS:  cpu time    0.00: real time    0.00
    CHARGE:  cpu time    0.14: real time    0.15
    MIXING:  cpu time    0.17: real time    0.17
    --------------------------------------------
      LOOP:  cpu time    2.05: real time    2.06

 eigenvalue-minimisations  :    20
 total energy-change (2. order) : 0.6567115E+00  (-0.5907104E-02)
 number of electron      10.0000036 magnetization 
 augmentation part        0.4735161 magnetization 

 Broyden mixing:
  rms(total) = 0.77545E-01    rms(broyden)= 0.70222E-01
  rms(prec ) = 0.10715E+00
  weight for this iteration     100.00

 eigenvalues of (default mixing * dielectric matrix)
  average eigenvalue GAMMA=   1.4182
  5.8652  3.2115  3.2115  2.7021  2.7021  1.9405  1.2218  1.2218  0.9006  0.9006
  0.9120  0.9120  0.8745  0.8745  0.7717  0.7717  0.2678  0.2678  0.5939  0.5363
  0.5363  0.0040

 Free energy of the ion-electron system (eV)
  ---------------------------------------------------
  alpha Z        PSCENC =         0.40002888
  Ewald energy   TEWEN  =       -76.89880732
  -1/2 Hartree   DENC   =      -422.62557949
  -exchange  EXHF       =         0.00000000
  -V(xc)+E(xc)   XCENC  =        36.76221409
  PAW double counting   =       467.31485100     -469.64662853
  entropy T*S    EENTRO =        -0.27327920
  eigenvalues    EBANDS =      -116.32092607
  atomic energy  EATOM  =       579.39041991
  ---------------------------------------------------
  free energy    TOTEN  =        -1.89770675 eV

  energy without entropy =       -1.62442755  energy(sigma->0) =       -1.76106715


--------------------------------------------------------------------------------------------------------




----------------------------------------- Iteration    1(  28)  ---------------------------------------


    POTLOK:  cpu time    1.32: real time    1.32
    SETDIJ:  cpu time    0.00: real time    0.01
    EDDIAG:  cpu time    0.16: real time    0.16
  RMM-DIIS:  cpu time    0.63: real time    0.64
    ORTHCH:  cpu time    0.01: real time    0.01
       DOS:  cpu time    0.00: real time    0.00
    CHARGE:  cpu time    0.17: real time    0.17
    MIXING:  cpu time    0.21: real time    0.21
    --------------------------------------------
      LOOP:  cpu time    2.50: real time    2.51

 eigenvalue-minimisations  :    20
 total energy-change (2. order) :-0.3612697E+00  (-0.9910626E-03)
 number of electron      10.0000063 magnetization 
 augmentation part        0.6608099 magnetization 

 Broyden mixing:
  rms(total) = 0.90114E+00    rms(broyden)= 0.90064E+00
  rms(prec ) = 0.14772E+01
  weight for this iteration     100.00

 eigenvalues of (default mixing * dielectric matrix)
  average eigenvalue GAMMA=   1.3714
  5.8921  3.2286  3.2286  2.6938  2.6938  1.9486  1.2228  1.2228  0.9006  0.9006
  0.9134  0.9134  0.8743  0.8743  0.7698  0.7698  0.5949  0.2678  0.2678  0.1502
  0.1502  0.5322  0.5322

 Free energy of the ion-electron system (eV)
  ---------------------------------------------------
  alpha Z        PSCENC =         0.40002888
  Ewald energy   TEWEN  =       -76.89880732
  -1/2 Hartree   DENC   =      -422.21735720
  -exchange  EXHF       =         0.00000000
  -V(xc)+E(xc)   XCENC  =        36.76958317
  PAW double counting   =       468.57353219     -470.91296668
  entropy T*S    EENTRO =        -0.02416816
  eigenvalues    EBANDS =      -117.33924124
  atomic energy  EATOM  =       579.39041991
  ---------------------------------------------------
  free energy    TOTEN  =        -2.25897645 eV

  energy without entropy =       -2.23480829  energy(sigma->0) =       -2.24689237


--------------------------------------------------------------------------------------------------------




----------------------------------------- Iteration    1(  29)  ---------------------------------------


    POTLOK:  cpu time    1.37: real time    1.37
    SETDIJ:  cpu time    0.00: real time    0.01
    EDDIAG:  cpu time    0.15: real time    0.15
  RMM-DIIS:  cpu time    0.66: real time    0.66
    ORTHCH:  cpu time    0.00: real time    0.01
       DOS:  cpu time    0.00: real time    0.00
    CHARGE:  cpu time    0.14: real time    0.14
    MIXING:  cpu time    0.17: real time    0.17
    --------------------------------------------
      LOOP:  cpu time    2.50: real time    2.50

 eigenvalue-minimisations  :    20
 total energy-change (2. order) : 0.3534288E+00  (-0.9961799E-03)
 number of electron      10.0000043 magnetization 
 augmentation part        0.5223684 magnetization 

 Broyden mixing:
  rms(total) = 0.18960E+00    rms(broyden)= 0.18840E+00
  rms(prec ) = 0.30905E+00
  weight for this iteration     100.00

 eigenvalues of (default mixing * dielectric matrix)
  average eigenvalue GAMMA=   1.4185
  5.4101  5.4101  2.4363  2.4363  2.1524  2.1524  1.2435  1.2435  0.9527  0.9527
  0.8915  0.8915  0.9319  0.9319  0.2678  0.2678  0.8520  0.8520  0.7842  0.7842
  0.5730  0.5730  0.6012  0.4516

 Free energy of the ion-electron system (eV)
  ---------------------------------------------------
  alpha Z        PSCENC =         0.40002888
  Ewald energy   TEWEN  =       -76.89880732
  -1/2 Hartree   DENC   =      -422.26769316
  -exchange  EXHF       =         0.00000000
  -V(xc)+E(xc)   XCENC  =        36.73922521
  PAW double counting   =       466.16267745     -468.48837562
  entropy T*S    EENTRO =        -0.23014164
  eigenvalues    EBANDS =      -116.71288136
  atomic energy  EATOM  =       579.39041991
  ---------------------------------------------------
  free energy    TOTEN  =        -1.90554765 eV

  energy without entropy =       -1.67540601  energy(sigma->0) =       -1.79047683


--------------------------------------------------------------------------------------------------------




----------------------------------------- Iteration    1(  30)  ---------------------------------------


    POTLOK:  cpu time    1.18: real time    1.18
    SETDIJ:  cpu time    0.01: real time    0.01
    EDDIAG:  cpu time    0.14: real time    0.14
  RMM-DIIS:  cpu time    0.52: real time    0.52
    ORTHCH:  cpu time    0.00: real time    0.01
       DOS:  cpu time    0.00: real time    0.00
    CHARGE:  cpu time    0.15: real time    0.15
    MIXING:  cpu time    0.19: real time    0.19
    --------------------------------------------
      LOOP:  cpu time    2.20: real time    2.20

 eigenvalue-minimisations  :    19
 total energy-change (2. order) :-0.2490659E-01  (-0.6045522E-04)
 number of electron      10.0000045 magnetization 
 augmentation part        0.5360748 magnetization 

 Broyden mixing:
  rms(total) = 0.26056E+00    rms(broyden)= 0.26056E+00
  rms(prec ) = 0.42609E+00
  weight for this iteration     100.00

 eigenvalues of (default mixing * dielectric matrix)
  average eigenvalue GAMMA=   1.3901
  6.5417  3.2336  3.2336  2.4167  2.4167  2.4092  1.2012  1.2012  1.0969  1.0969
  0.8884  0.8884  0.9494  0.9494  0.8666  0.8666  0.2678  0.2678  0.7437  0.7437
  0.6210  0.5499  0.5499  0.3763  0.3763

 Free energy of the ion-electron system (eV)
  ---------------------------------------------------
  alpha Z        PSCENC =         0.40002888
  Ewald energy   TEWEN  =       -76.89880732
  -1/2 Hartree   DENC   =      -422.27885522
  -exchange  EXHF       =         0.00000000
  -V(xc)+E(xc)   XCENC  =        36.73007910
  PAW double counting   =       466.33730320     -468.66314764
  entropy T*S    EENTRO =        -0.21362081
  eigenvalues    EBANDS =      -116.73385433
  atomic energy  EATOM  =       579.39041991
  ---------------------------------------------------
  free energy    TOTEN  =        -1.93045424 eV

  energy without entropy =       -1.71683343  energy(sigma->0) =       -1.82364383


--------------------------------------------------------------------------------------------------------




----------------------------------------- Iteration    1(  31)  ---------------------------------------


    POTLOK:  cpu time    1.17: real time    1.17
    SETDIJ:  cpu time    0.00: real time    0.01
    EDDIAG:  cpu time    0.12: real time    0.12
  RMM-DIIS:  cpu time    0.45: real time    0.45
    ORTHCH:  cpu time    0.01: real time    0.01
       DOS:  cpu time    0.00: real time    0.00
    CHARGE:  cpu time    0.13: real time    0.13
    MIXING:  cpu time    0.17: real time    0.17
    --------------------------------------------
      LOOP:  cpu time    2.06: real time    2.06

 eigenvalue-minimisations  :    19
 total energy-change (2. order) : 0.9964839E-02  (-0.7648905E-04)
 number of electron      10.0000040 magnetization 
 augmentation part        0.5080523 magnetization 

 Broyden mixing:
  rms(total) = 0.10916E+00    rms(broyden)= 0.10882E+00
  rms(prec ) = 0.17988E+00
  weight for this iteration     100.00

 eigenvalues of (default mixing * dielectric matrix)
  average eigenvalue GAMMA=   1.5035
  8.1791  3.5959  3.5959  2.2624  2.2624  2.8987  1.3479  1.3479  1.2937  1.2937
  0.9266  0.9266  0.8879  0.8879  0.2678  0.2678  0.8948  0.8948  0.7194  0.7194
  0.7296  0.7296  0.5492  0.5492  0.5971  0.4667

 Free energy of the ion-electron system (eV)
  ---------------------------------------------------
  alpha Z        PSCENC =         0.40002888
  Ewald energy   TEWEN  =       -76.89880732
  -1/2 Hartree   DENC   =      -422.17441977
  -exchange  EXHF       =         0.00000000
  -V(xc)+E(xc)   XCENC  =        36.71445487
  PAW double counting   =       465.47517147     -467.79557287
  entropy T*S    EENTRO =        -0.24796422
  eigenvalues    EBANDS =      -116.78380035
  atomic energy  EATOM  =       579.39041991
  ---------------------------------------------------
  free energy    TOTEN  =        -1.92048940 eV

  energy without entropy =       -1.67252518  energy(sigma->0) =       -1.79650729


--------------------------------------------------------------------------------------------------------




----------------------------------------- Iteration    1(  32)  ---------------------------------------


    POTLOK:  cpu time    1.10: real time    1.10
    SETDIJ:  cpu time    0.01: real time    0.01
    EDDIAG:  cpu time    0.12: real time    0.12
  RMM-DIIS:  cpu time    0.48: real time    0.48
    ORTHCH:  cpu time    0.01: real time    0.01
       DOS:  cpu time    0.00: real time    0.00
    CHARGE:  cpu time    0.16: real time    0.16
    MIXING:  cpu time    0.26: real time    0.26
    --------------------------------------------
      LOOP:  cpu time    2.13: real time    2.13

 eigenvalue-minimisations  :    18
 total energy-change (2. order) :-0.3790846E-02  (-0.5767376E-04)
 number of electron      10.0000035 magnetization 
 augmentation part        0.4754501 magnetization 

 Broyden mixing:
  rms(total) = 0.69026E-01    rms(broyden)= 0.68231E-01
  rms(prec ) = 0.10667E+00
  weight for this iteration     100.00

 eigenvalues of (default mixing * dielectric matrix)
  average eigenvalue GAMMA=   1.4491
  6.4149  4.0131  4.0131  3.0924  2.2384  2.2384  1.3871  1.3871  1.3185  1.3185
  0.8962  0.8962  0.9132  0.9132  0.9411  0.9411  0.2678  0.2678  0.6528  0.6528
  0.7368  0.7368  0.5408  0.5408  0.6567  0.5753  0.5753

 Free energy of the ion-electron system (eV)
  ---------------------------------------------------
  alpha Z        PSCENC =         0.40002888
  Ewald energy   TEWEN  =       -76.89880732
  -1/2 Hartree   DENC   =      -422.16995759
  -exchange  EXHF       =         0.00000000
  -V(xc)+E(xc)   XCENC  =        36.70387469
  PAW double counting   =       465.03137945     -467.34758045
  entropy T*S    EENTRO =        -0.27876655
  eigenvalues    EBANDS =      -116.75487125
  atomic energy  EATOM  =       579.39041991
  ---------------------------------------------------
  free energy    TOTEN  =        -1.92428025 eV

  energy without entropy =       -1.64551370  energy(sigma->0) =       -1.78489697


--------------------------------------------------------------------------------------------------------




----------------------------------------- Iteration    1(  33)  ---------------------------------------


    POTLOK:  cpu time    1.27: real time    1.27
    SETDIJ:  cpu time    0.01: real time    0.01
    EDDIAG:  cpu time    0.14: real time    0.15
  RMM-DIIS:  cpu time    0.46: real time    0.46
    ORTHCH:  cpu time    0.01: real time    0.01
       DOS:  cpu time    0.00: real time    0.00
    --------------------------------------------
      LOOP:  cpu time    1.89: real time    1.89

 eigenvalue-minimisations  :    13
 total energy-change (2. order) :-0.7186478E-04  (-0.1972621E-04)
 number of electron      10.0000035 magnetization 
 augmentation part        0.4754501 magnetization 

 Free energy of the ion-electron system (eV)
  ---------------------------------------------------
  alpha Z        PSCENC =         0.40002888
  Ewald energy   TEWEN  =       -76.89880732
  -1/2 Hartree   DENC   =      -422.14357346
  -exchange  EXHF       =         0.00000000
  -V(xc)+E(xc)   XCENC  =        36.70239047
  PAW double counting   =       464.92877649     -467.24313760
  entropy T*S    EENTRO =        -0.26923670
  eigenvalues    EBANDS =      -116.79121278
  atomic energy  EATOM  =       579.39041991
  ---------------------------------------------------
  free energy    TOTEN  =        -1.92435211 eV

  energy without entropy =       -1.65511541  energy(sigma->0) =       -1.78973376


--------------------------------------------------------------------------------------------------------




 average (electrostatic) potential at core
  the test charge radii are     0.6991  0.7215
  (the norm of the test charge is              1.0000)
       1 -64.3540       2 -81.2641
 
 
 
 E-fermi :  -6.8497     XC(G=0):  -0.8612     alpha+bet : -0.1603


 k-point   1 :       0.0000    0.0000    0.0000
  band No.  band energies     occupation 
      1     -21.8160      2.00000
      2     -15.3154      2.00000
      3      -7.3661      1.99974
      4      -6.9938      1.69182
      5      -6.9933      1.69014
      6      -6.7060      0.30964
      7      -6.7057      0.30861
      8      -6.2807      0.00006
      9      -0.4969      0.00000


--------------------------------------------------------------------------------------------------------


 soft charge-density along one line, spin component           1
         0         1         2         3         4         5         6         7         8         9
 total charge-density along one line
 
 pseudopotential strength for first ion, spin component:           1
 10.555  14.045  -0.000   0.001  -0.000   0.000  -0.004   0.000
 14.045  18.689  -0.000   0.002  -0.000   0.000  -0.005   0.000
 -0.000  -0.000  -4.706  -0.000  -0.000   9.234   0.000   0.000
  0.001   0.002  -0.000  -4.703   0.000   0.000   9.227  -0.000
 -0.000  -0.000  -0.000   0.000  -4.706   0.000  -0.000   9.234
  0.000   0.000   9.234   0.000   0.000 -20.273  -0.000  -0.000
 -0.004  -0.005   0.000   9.227  -0.000  -0.000 -20.260   0.000
  0.000   0.000   0.000  -0.000   9.234  -0.000   0.000 -20.273
 total augmentation occupancy for first ion, spin component:           1
  1.575   0.176   0.000  -0.008   0.000   0.000  -0.002   0.000
  0.176   0.023   0.000  -0.042   0.000   0.000  -0.001   0.000
  0.000   0.000   0.632   0.000   0.000   0.001   0.000   0.000
 -0.008  -0.042   0.000   0.632   0.000   0.000   0.005   0.000
  0.000   0.000   0.000   0.000   0.633   0.000   0.000   0.001
  0.000   0.000   0.001   0.000   0.000   0.000   0.000   0.000
 -0.002  -0.001   0.000   0.005   0.000   0.000   0.000   0.000
  0.000   0.000   0.000   0.000   0.001   0.000   0.000   0.000


------------------------ aborting loop because EDIFF is reached ----------------------------------------


    CHARGE:  cpu time    0.16: real time    0.16
    FORLOC:  cpu time    0.08: real time    0.09
    FORNL :  cpu time    0.07: real time    0.07
    STRESS:  cpu time    0.48: real time    0.48
    FORCOR:  cpu time    1.37: real time    1.38
    FORHAR:  cpu time    0.33: real time    0.33
    MIXING:  cpu time    0.16: real time    0.17

  FORCE on cell =-STRESS in cart. coord.  units (eV):
  Direction    XX          YY          ZZ          XY          YZ          ZX
  --------------------------------------------------------------------------------------
  Alpha Z     0.40003     0.40003     0.40003
  Ewald     -64.90783   -68.57939    56.58840    -0.00000     0.00000     0.00000
  Hartree   108.55682   104.98548   208.13254    -0.00000    -0.00000    -0.00000
  E(xc)     -40.25575   -40.25460   -40.09874     0.00000    -0.00000    -0.00000
  Local    -172.13587  -164.88658  -392.91532     0.00000    -0.00000     0.00000
  n-local   -14.53254   -14.52834   -14.01988    -0.00000    -0.00000    -0.00000
  augment     5.85729     5.85676     5.53998    -0.00000     0.00000     0.00000
  Kinetic   175.98267   176.00923   170.12004     0.00000     0.00000    -0.00000
  Fock        0.00000     0.00000     0.00000     0.00000     0.00000     0.00000
  -------------------------------------------------------------------------------------
  Total      -1.03518    -0.99741    -6.25295     0.00000     0.00000     0.00000
  in kB      -1.51837    -1.46297    -9.17165     0.00000     0.00000     0.00000
  external pressure =       -4.05 kB  Pullay stress =        0.00 kB


 VOLUME and BASIS-vectors are now :
 -----------------------------------------------------------------------------
  energy-cutoff  :      400.00
  volume of cell :     1092.32
      direct lattice vectors                 reciprocal lattice vectors
    10.100000000  0.000000000  0.000000000     0.099009901  0.000000000  0.000000000
     0.000000000 10.300000000  0.000000000     0.000000000  0.097087379  0.000000000
     0.000000000  0.000000000 10.500000000     0.000000000  0.000000000  0.095238095

  length of vectors
    10.100000000 10.300000000 10.500000000     0.099009901  0.097087379  0.095238095


 FORCES acting on ions
    electron-ion (+dipol)            ewald-force                    non-local-force                 convergence-correction
 -----------------------------------------------------------------------------------------------
   -.260E-14 -.891E-14 0.321E+02   0.622E-17 0.620E-18 -.338E+02   0.000E+00 0.000E+00 0.329E+01   0.241E-11 0.657E-12 0.293E-01
   0.459E-14 0.404E-14 -.312E+02   0.253E-16 0.138E-16 0.338E+02   0.000E+00 0.000E+00 -.431E+01   -.173E-11 0.184E-11 0.322E-01
 -----------------------------------------------------------------------------------------------
   0.199E-14 -.487E-14 0.957E+00   0.315E-16 0.144E-16 0.000E+00   0.000E+00 0.000E+00 -.101E+01   0.681E-12 0.250E-11 0.615E-01
 
 
 POSITION                                       TOTAL-FORCE (eV/Angst)
 -----------------------------------------------------------------------------------
      0.00000      0.00000      0.00000         0.000000      0.000000      1.675237
      0.00000      0.00000      3.00000         0.000000      0.000000     -1.675237
 -----------------------------------------------------------------------------------
    total drift:                                0.000000      0.000000      0.007411


--------------------------------------------------------------------------------------------------------



  FREE ENERGIE OF THE ION-ELECTRON SYSTEM (eV)
  ---------------------------------------------------
  free  energy   TOTEN  =        -1.92435211 eV

  energy  without entropy=       -1.65511541  energy(sigma->0) =       -1.78973376
 


--------------------------------------------------------------------------------------------------------


    POTLOK:  cpu time    1.14: real time    1.15


--------------------------------------------------------------------------------------------------------


     LOOP+:  cpu time   68.40: real time   68.55
    4ORBIT:  cpu time    0.00: real time    0.00

 total amount of memory used by VASP on root node   140193. kBytes
========================================================================

   base      :      30000. kBytes
   nonl-proj :       3171. kBytes
   fftplans  :      37440. kBytes
   grid      :      66720. kBytes
   one-center:          6. kBytes
   wavefun   :       2856. kBytes
 
  
  
 General timing and accounting informations for this job:
 ========================================================
  
                  Total CPU time used (sec):       70.652
                            User time (sec):       70.204
                          System time (sec):        0.448
                         Elapsed time (sec):       70.798
  
                   Maximum memory used (kb):      235648.
                   Average memory used (kb):           0.
  
                          Minor page faults:       104165
                          Major page faults:            0
                 Voluntary context switches:            0
