 vasp.5.3.3 18Dez12 (build Sep  7 2015 22:32:56) complex                        
  
 executed on             LinuxIFC date 2002.02.05  01:06:16
 running on    1 total cores
 distrk:  each k-point on    1 cores,    1 groups
 distr:  one band on NCORES_PER_BAND=   1 cores,    1 groups


--------------------------------------------------------------------------------------------------------


 INCAR:
 POTCAR:    PAW_PBE C 08Apr2002                   
 POTCAR:    PAW_PBE O 08Apr2002                   
 POTCAR:    PAW_PBE C 08Apr2002                   
   VRHFIN =C: s2p2                                                              
   LEXCH  = PE                                                                  
   EATOM  =   147.1560 eV,   10.8157 Ry                                         
                                                                                
   TITEL  = PAW_PBE C 08Apr2002                                                 
   LULTRA =        F    use ultrasoft PP ?                                      
   IUNSCR =        1    unscreen: 0-lin 1-nonlin 2-no                           
   RPACOR =    1.200    partial core radius                                     
   POMASS =   12.011; ZVAL   =    4.000    mass and valenz                      
   RCORE  =    1.500    outmost cutoff radius                                   
   RWIGS  =    1.630; RWIGS  =    0.863    wigner-seitz radius (au A)           
   ENMAX  =  400.000; ENMIN  =  300.000 eV                                      
   ICORE  =        2    local potential                                         
   LCOR   =        T    correct aug charges                                     
   LPAW   =        T    paw PP                                                  
   EAUG   =  644.873                                                            
   DEXC   =    0.000                                                            
   RMAX   =    1.529    core radius for proj-oper                               
   RAUG   =    1.300    factor for augmentation sphere                          
   RDEP   =    1.501    radius for radial grids                                 
   RDEPT  =    1.300    core radius for aug-charge                              
                                                                                
   Atomic configuration                                                         
    4 entries                                                                   
     n  l   j            E        occ.                                          
     1  0  0.50      -273.3789   2.0000                                         
     2  0  0.50       -13.7508   2.0000                                         
     2  1  0.50        -5.2854   2.0000                                         
     3  2  1.50        -5.4423   0.0000                                         
   Description                                                                  
     l       E           TYP  RCUT    TYP  RCUT                                 
     0    -13.7508458     23  1.200                                             
     0     -8.2022199     23  1.200                                             
     1     -5.2854383     23  1.500                                             
     1     34.0145650     23  1.500                                             
     2     -5.4423304      7  1.500                                             
  local pseudopotential read in
  partial core-charges read in
  partial kinetic energy density read in
  atomic valenz-charges read in
  non local Contribution for L=           0  read in
    real space projection operators read in
  non local Contribution for L=           0  read in
    real space projection operators read in
  non local Contribution for L=           1  read in
    real space projection operators read in
  non local Contribution for L=           1  read in
    real space projection operators read in
    PAW grid and wavefunctions read in
 
   number of l-projection  operators is LMAX  =           4
   number of lm-projection operators is LMMAX =           8
 
 POTCAR:    PAW_PBE O 08Apr2002                   
   VRHFIN =O: s2p4                                                              
   LEXCH  = PE                                                                  
   EATOM  =   432.3788 eV,   31.7789 Ry                                         
                                                                                
   TITEL  = PAW_PBE O 08Apr2002                                                 
   LULTRA =        F    use ultrasoft PP ?                                      
   IUNSCR =        1    unscreen: 0-lin 1-nonlin 2-no                           
   RPACOR =    1.200    partial core radius                                     
   POMASS =   16.000; ZVAL   =    6.000    mass and valenz                      
   RCORE  =    1.520    outmost cutoff radius                                   
   RWIGS  =    1.550; RWIGS  =    0.820    wigner-seitz radius (au A)           
   ENMAX  =  400.000; ENMIN  =  300.000 eV                                      
   ICORE  =        2    local potential                                         
   LCOR   =        T    correct aug charges                                     
   LPAW   =        T    paw PP                                                  
   EAUG   =  605.392                                                            
   DEXC   =    0.000                                                            
   RMAX   =    1.553    core radius for proj-oper                               
   RAUG   =    1.300    factor for augmentation sphere                          
   RDEP   =    1.550    radius for radial grids                                 
   RDEPT  =    1.329    core radius for aug-charge                              
                                                                                
   Atomic configuration                                                         
    4 entries                                                                   
     n  l   j            E        occ.                                          
     1  0  0.50      -514.6923   2.0000                                         
     2  0  0.50       -23.9615   2.0000                                         
     2  1  0.50        -9.0305   4.0000                                         
     3  2  1.50        -9.5241   0.0000                                         
   Description                                                                  
     l       E           TYP  RCUT    TYP  RCUT                                 
     0    -23.9615318     23  1.200                                             
     0     -9.5240782     23  1.200                                             
     1     -9.0304911     23  1.520                                             
     1      8.1634956     23  1.520                                             
     2     -9.5240782      7  1.500                                             
  local pseudopotential read in
  partial core-charges read in
  partial kinetic energy density read in
  kinetic energy density of atom read in
  atomic valenz-charges read in
  non local Contribution for L=           0  read in
    real space projection operators read in
  non local Contribution for L=           0  read in
    real space projection operators read in
  non local Contribution for L=           1  read in
    real space projection operators read in
  non local Contribution for L=           1  read in
    real space projection operators read in
    PAW grid and wavefunctions read in
 
   number of l-projection  operators is LMAX  =           4
   number of lm-projection operators is LMMAX =           8
 
  PAW_PBE C 08Apr2002                   :
 energy of atom  1       EATOM= -147.1560
 kinetic energy error for atom=    0.0288 (will be added to EATOM!!)
  PAW_PBE O 08Apr2002                   :
 energy of atom  2       EATOM= -432.3788
 kinetic energy error for atom=    0.1156 (will be added to EATOM!!)
 
 
 POSCAR: CO molecule in a box                    
  positions in cartesian coordinates
  No initial velocities read in
 exchange correlation table for  LEXCH =        8
   RHO(1)=    0.500       N(1)  =     2000
   RHO(2)=  100.500       N(2)  =     4000
 


--------------------------------------------------------------------------------------------------------


 ion  position               nearest neighbor table
   1  0.000  0.000  0.000-
   2  0.000  0.000  0.267-
 
  LATTYP: Found a simple orthorhombic cell.
 ALAT       =    10.1000000000
 B/A-ratio  =     1.0198019802
 C/A-ratio  =     1.0396039604
  
  Lattice vectors:
  
 A1 = (  10.1000000000,   0.0000000000,   0.0000000000)
 A2 = (   0.0000000000,  10.3000000000,   0.0000000000)
 A3 = (   0.0000000000,   0.0000000000,  10.5000000000)


Analysis of symmetry for initial positions (statically):
=====================================================================
 Subroutine PRICEL returns:
 Original cell was already a primitive cell.
 

 Routine SETGRP: Setting up the symmetry group for a 
 simple orthorhombic supercell.


 Subroutine GETGRP returns: Found  4 space group operations
 (whereof  4 operations were pure point group operations)
 out of a pool of  8 trial point group operations.


The static configuration has the point symmetry C_2v.


Analysis of symmetry for dynamics (positions and initial velocities):
=====================================================================
 Subroutine PRICEL returns:
 Original cell was already a primitive cell.
 

 Routine SETGRP: Setting up the symmetry group for a 
 simple orthorhombic supercell.


 Subroutine GETGRP returns: Found  4 space group operations
 (whereof  4 operations were pure point group operations)
 out of a pool of  8 trial point group operations.


The dynamic configuration has the point symmetry C_2v.


Analysis of constrained symmetry for selective dynamics:
=====================================================================
 Subroutine PRICEL returns:
 Original cell was already a primitive cell.
 

 Routine SETGRP: Setting up the symmetry group for a 
 simple orthorhombic supercell.


 Subroutine GETGRP returns: Found  4 space group operations
 (whereof  4 operations were pure point group operations)
 out of a pool of  8 trial point group operations.


The constrained configuration has the point symmetry C_2v.


 irot  :   1
 --------------------------------------------------------------------
 isymop:   1   0   0
           0   1   0
           0   0   1

 gtrans:     0.0000000     0.0000000     0.0000000

 ptrans:     0.0000000     0.0000000     0.0000000
 rotmap:
 (   1->   1)  (   2->   2) 


 irot  :   2
 --------------------------------------------------------------------
 isymop:  -1   0   0
           0  -1   0
           0   0   1

 gtrans:     0.0000000     0.0000000     0.0000000

 ptrans:     0.0000000     0.0000000     0.0000000
 rotmap:
 (   1->   1)  (   2->   2) 


 irot  :   3
 --------------------------------------------------------------------
 isymop:   1   0   0
           0  -1   0
           0   0   1

 gtrans:     0.0000000     0.0000000     0.0000000

 ptrans:     0.0000000     0.0000000     0.0000000
 rotmap:
 (   1->   1)  (   2->   2) 


 irot  :   4
 --------------------------------------------------------------------
 isymop:  -1   0   0
           0   1   0
           0   0   1

 gtrans:     0.0000000     0.0000000     0.0000000

 ptrans:     0.0000000     0.0000000     0.0000000
 rotmap:
 (   1->   1)  (   2->   2) 
 
 
 KPOINTS: Gamma-point only                        

Automatic generation of k-mesh.
Space group operators:
 irot       det(A)        alpha          n_x          n_y          n_z        tau_x        tau_y        tau_z
    1     1.000000     0.000000     1.000000     0.000000     0.000000     0.000000     0.000000     0.000000
    2     1.000000   180.000000     0.000000     0.000000     1.000000     0.000000     0.000000     0.000000
    3    -1.000000   180.000000     0.000000     1.000000     0.000000     0.000000     0.000000     0.000000
    4    -1.000000   180.000000     1.000000     0.000000     0.000000     0.000000     0.000000     0.000000
 
 Subroutine IBZKPT returns following result:
 ===========================================
 
 Found      1 irreducible k-points:
 
 Following reciprocal coordinates:
            Coordinates               Weight
  0.000000  0.000000  0.000000      1.000000
 
 Following cartesian coordinates:
            Coordinates               Weight
  0.000000  0.000000  0.000000      1.000000
 


--------------------------------------------------------------------------------------------------------




 Dimension of arrays:
   k-points           NKPTS =      1   k-points in BZ     NKDIM =      1   number of bands    NBANDS=      9
   number of dos      NEDOS =    301   number of ions     NIONS =      2
   non local maximal  LDIM  =      4   non local SUM 2l+1 LMDIM =      8
   total plane-waves  NPLWV = 135000
   max r-space proj   IRMAX =      1   max aug-charges    IRDMAX=   1803
   dimension x,y,z NGX =    50 NGY =   50 NGZ =   54
   dimension x,y,z NGXF=   100 NGYF=  100 NGZF=  108
   support grid    NGXF=   100 NGYF=  100 NGZF=  108
   ions per type =               1   1
 NGX,Y,Z   is equivalent  to a cutoff of   8.23,  8.07,  8.55 a.u.
 NGXF,Y,Z  is equivalent  to a cutoff of  16.46, 16.14, 17.10 a.u.


 I would recommend the setting:
   dimension x,y,z NGX =    49 NGY =   50 NGZ =   51
 SYSTEM =  Hello World                             
 POSCAR =  CO molecule in a box                    

 Startparameter for this run:
   NWRITE =      2    write-flag & timer
   PREC   = normal    normal or accurate (medium, high low for compatibility)
   ISTART =      0    job   : 0-new  1-cont  2-samecut
   ICHARG =      2    charge: 1-file 2-atom 10-const
   ISPIN  =      1    spin polarized calculation?
   LNONCOLLINEAR =      F non collinear calculations
   LSORBIT =      F    spin-orbit coupling
   INIWAV =      1    electr: 0-lowe 1-rand  2-diag
   LASPH  =      F    aspherical Exc in radial PAW
   METAGGA=      F    non-selfconsistent MetaGGA calc.

 Electronic Relaxation 1
   ENCUT  =  400.0 eV  29.40 Ry    5.42 a.u.  16.47 16.80 17.12*2*pi/ulx,y,z
   ENINI  =  400.0     initial cutoff
   ENAUG  =  644.9 eV  augmentation charge cutoff
   NELM   =     60;   NELMIN=  2; NELMDL=  0     # of ELM steps 
   EDIFF  = 0.1E-03   stopping-criterion for ELM
   LREAL  =      F    real-space projection
   NLSPLINE    = F    spline interpolate recip. space projectors
   LCOMPAT=      F    compatible to vasp.4.4
   GGA_COMPAT  = T    GGA compatible to vasp.4.4-vasp.4.6
   LMAXPAW     = -100 max onsite density
   LMAXMIX     =    2 max onsite mixed and CHGCAR
   VOSKOWN=      0    Vosko Wilk Nusair interpolation
   ROPT   =    0.00000   0.00000
 Ionic relaxation
   EDIFFG = -.1E-01   stopping-criterion for IOM
   NSW    =      0    number of steps for IOM
   NBLOCK =      1;   KBLOCK =      1    inner block; outer block 
   IBRION =     -1    ionic relax: 0-MD 1-quasi-New 2-CG
   NFREE  =      0    steps in history (QN), initial steepest desc. (CG)
   ISIF   =      2    stress and relaxation
   IWAVPR =     10    prediction:  0-non 1-charg 2-wave 3-comb
   ISYM   =      2    0-nonsym 1-usesym 2-fastsym
   LCORR  =      T    Harris-Foulkes like correction to forces

   POTIM  = 0.5000    time-step for ionic-motion
   TEIN   =    0.0    initial temperature
   TEBEG  =    0.0;   TEEND  =   0.0 temperature during run
   SMASS  =  -3.00    Nose mass-parameter (am)
   estimated Nose-frequenzy (Omega)   =  0.10E-29 period in steps =****** mass=  -0.233E-26a.u.
   SCALEE = 1.0000    scale energy and forces
   NPACO  =    256;   APACO  = 16.0  distance and # of slots for P.C.
   PSTRESS=    0.0 pullay stress

  Mass of Ions in am
   POMASS =  12.01 16.00
  Ionic Valenz
   ZVAL   =   4.00  6.00
  Atomic Wigner-Seitz radii
   RWIGS  =  -1.00 -1.00
  virtual crystal weights 
   VCA    =   1.00  1.00
   NELECT =      10.0000    total number of electrons
   NUPDOWN=      -1.0000    fix difference up-down

 DOS related values:
   EMIN   =  10.00;   EMAX   =-10.00  energy-range for DOS
   EFERMI =   0.00
   ISMEAR =     0;   SIGMA  =   0.20  broadening in eV -4-tet -1-fermi 0-gaus

 Electronic relaxation 2 (details)
   IALGO  =     68    algorithm
   LDIAG  =      T    sub-space diagonalisation (order eigenvalues)
   LSUBROT=      T    optimize rotation matrix (better conditioning)
   TURBO    =      0    0=normal 1=particle mesh
   IRESTART =      0    0=no restart 2=restart with 2 vectors
   NREBOOT  =      0    no. of reboots
   NMIN     =      0    reboot dimension
   EREF     =   0.00    reference energy to select bands
   IMIX   =      4    mixing-type and parameters
     AMIX     =   0.40;   BMIX     =  1.00
     AMIX_MAG =   1.60;   BMIX_MAG =  1.00
     AMIN     =   0.10
     WC   =   100.;   INIMIX=   1;  MIXPRE=   1;  MAXMIX= -45

 Intra band minimization:
   WEIMIN = 0.0000     energy-eigenvalue tresh-hold
   EBREAK =  0.28E-05  absolut break condition
   DEPER  =   0.30     relativ break condition  

   TIME   =   0.40     timestep for ELM

  volume/ion in A,a.u.               =     546.16      3685.65
  Fermi-wavevector in a.u.,A,eV,Ry     =   0.342472  0.647179  1.595791  0.117287
  Thomas-Fermi vector in A             =   1.247862
 
 Write flags
   LWAVE  =      F    write WAVECAR
   LCHARG =      F    write CHGCAR
   LVTOT  =      F    write LOCPOT, total local potential
   LVHAR  =      F    write LOCPOT, Hartree potential only
   LELF   =      F    write electronic localiz. function (ELF)
   LORBIT =      0    0 simple, 1 ext, 2 COOP (PROOUT)


 Dipole corrections
   LMONO  =      F    monopole corrections only (constant potential shift)
   LDIPOL =      F    correct potential (dipole corrections)
   IDIPOL =      0    1-x, 2-y, 3-z, 4-all directions 
   EPSILON=  1.0000000 bulk dielectric constant

 Exchange correlation treatment:
   GGA     =    --    GGA type
   LEXCH   =     8    internal setting for exchange type
   VOSKOWN=      0    Vosko Wilk Nusair interpolation
   LHFCALC =     F    Hartree Fock is set to
   LHFONE  =     F    Hartree Fock one center treatment
   AEXX    =    0.0000 exact exchange contribution

 Linear response parameters
   LEPSILON=     F    determine dielectric tensor
   LRPA    =     F    only Hartree local field effects (RPA)
   LNABLA  =     F    use nabla operator in PAW spheres
   LVEL    =     F    velocity operator in full k-point grid
   LINTERFAST=   F  fast interpolation
   KINTER  =     0    interpolate to denser k-point grid
   CSHIFT  =0.1000    complex shift for real part using Kramers Kronig
   OMEGAMAX=  -1.0    maximum frequency
   DEG_THRESHOLD= 0.2000000E-02 threshold for treating states as degnerate
   RTIME   =    0.100 relaxation time in fs

 Orbital magnetization related:
   ORBITALMAG=     F  switch on orbital magnetization
   LCHIMAG   =     F  perturbation theory with respect to B field
   DQ        =  0.001000  dq finite difference perturbation B field



--------------------------------------------------------------------------------------------------------


 Static calculation
 charge density and potential will be updated during run
 non-spin polarized calculation
 RMM-DIIS sequential band-by-band and
  variant of blocked Davidson during initial phase
 perform sub-space diagonalisation
    before iterative eigenvector-optimisation
 modified Broyden-mixing scheme, WC =      100.0
 initial mixing is a Kerker type mixing with AMIX =  0.4000 and BMIX =      1.0000
 Hartree-type preconditioning will be used
 using additional bands            4
 reciprocal scheme for non local part
 use partial core corrections
 calculate Harris-corrections to forces 
   (improved forces if not selfconsistent)
 use gradient corrections 
 use of overlap-Matrix (Vanderbilt PP)
 Gauss-broadening in eV      SIGMA  =   0.20


--------------------------------------------------------------------------------------------------------


  energy-cutoff  :      400.00
  volume of cell :     1092.32
      direct lattice vectors                 reciprocal lattice vectors
    10.100000000  0.000000000  0.000000000     0.099009901  0.000000000  0.000000000
     0.000000000 10.300000000  0.000000000     0.000000000  0.097087379  0.000000000
     0.000000000  0.000000000 10.500000000     0.000000000  0.000000000  0.095238095

  length of vectors
    10.100000000 10.300000000 10.500000000     0.099009901  0.097087379  0.095238095


 
 k-points in units of 2pi/SCALE and weight: Gamma-point only                        
   0.00000000  0.00000000  0.00000000       1.000
 
 k-points in reciprocal lattice and weights: Gamma-point only                        
   0.00000000  0.00000000  0.00000000       1.000
 
 position of ions in fractional coordinates (direct lattice) 
   0.00000000  0.00000000  0.00000000
   0.00000000  0.00000000  0.26666667
 
 position of ions in cartesian coordinates  (Angst):
   0.00000000  0.00000000  0.00000000
   0.00000000  0.00000000  2.80000000
 


--------------------------------------------------------------------------------------------------------


 k-point  1 :   0.0000 0.0000 0.0000  plane waves:   19819

 maximum and minimum number of plane-waves per node :     19819    19819

 maximum number of plane-waves:     19819
 maximum index in each direction: 
   IXMAX=   16   IYMAX=   16   IZMAX=   17
   IXMIN=  -16   IYMIN=  -16   IZMIN=  -17

 WARNING: aliasing errors must be expected set NGX to  66 to avoid them
 WARNING: aliasing errors must be expected set NGY to  66 to avoid them
 WARNING: aliasing errors must be expected set NGZ to  70 to avoid them
 aliasing errors are usually negligible using standard VASP settings
 and one can safely disregard these warnings

 serial   3D FFT for wavefunctions
 parallel 3D FFT for charge:
    minimum data exchange during FFTs selected (reduces bandwidth)


 total amount of memory used by VASP on root node   140193. kBytes
========================================================================

   base      :      30000. kBytes
   nonl-proj :       3171. kBytes
   fftplans  :      37440. kBytes
   grid      :      66720. kBytes
   one-center:          6. kBytes
   wavefun   :       2856. kBytes
 
 Broyden mixing: mesh for mixing (old mesh)
   NGX = 33   NGY = 33   NGZ = 35
  (NGX  =100   NGY  =100   NGZ  =108)
  gives a total of  38115 points

 initial charge density was supplied:
 charge density of overlapping atoms calculated
 number of electron      10.0000000 magnetization 
 keeping initial charge density in first step


--------------------------------------------------------------------------------------------------------


 Maximum index for augmentation-charges         1541 (set IRDMAX)


--------------------------------------------------------------------------------------------------------


 First call to EWALD:  gamma=   0.172
 Maximum number of real-space cells 3x 3x 3
 Maximum number of reciprocal cells 3x 3x 3

 FEWALD executed in parallel
    FEWALD:  cpu time    0.00: real time    0.00


----------------------------------------- Iteration    1(   1)  ---------------------------------------


    POTLOK:  cpu time    1.13: real time    1.14
    SETDIJ:  cpu time    0.01: real time    0.00
     EDDAV:  cpu time    0.63: real time    0.65
       DOS:  cpu time    0.00: real time    0.00
    --------------------------------------------
      LOOP:  cpu time    1.77: real time    1.79

 eigenvalue-minimisations  :    26
 total energy-change (2. order) : 0.5288637E+02  (-0.1920544E+03)
 number of electron      10.0000000 magnetization 
 augmentation part       10.0000000 magnetization 

 Free energy of the ion-electron system (eV)
  ---------------------------------------------------
  alpha Z        PSCENC =         0.40002888
  Ewald energy   TEWEN  =       -69.55221552
  -1/2 Hartree   DENC   =      -424.07545068
  -exchange  EXHF       =         0.00000000
  -V(xc)+E(xc)   XCENC  =        36.74531155
  PAW double counting   =       455.07152327     -457.43959975
  entropy T*S    EENTRO =        -0.00014315
  eigenvalues    EBANDS =       -67.65349976
  atomic energy  EATOM  =       579.39041991
  ---------------------------------------------------
  free energy    TOTEN  =        52.88637476 eV

  energy without entropy =       52.88651791  energy(sigma->0) =       52.88644634


--------------------------------------------------------------------------------------------------------




----------------------------------------- Iteration    1(   2)  ---------------------------------------


     EDDAV:  cpu time    1.00: real time    1.00
       DOS:  cpu time    0.00: real time    0.00
    --------------------------------------------
      LOOP:  cpu time    1.00: real time    1.01

 eigenvalue-minimisations  :    35
 total energy-change (2. order) :-0.4694239E+02  (-0.4682280E+02)
 number of electron      10.0000000 magnetization 
 augmentation part       10.0000000 magnetization 

 Free energy of the ion-electron system (eV)
  ---------------------------------------------------
  alpha Z        PSCENC =         0.40002888
  Ewald energy   TEWEN  =       -69.55221552
  -1/2 Hartree   DENC   =      -424.07545068
  -exchange  EXHF       =         0.00000000
  -V(xc)+E(xc)   XCENC  =        36.74531155
  PAW double counting   =       455.07152327     -457.43959975
  entropy T*S    EENTRO =        -0.00000000
  eigenvalues    EBANDS =      -114.59603562
  atomic energy  EATOM  =       579.39041991
  ---------------------------------------------------
  free energy    TOTEN  =         5.94398205 eV

  energy without entropy =        5.94398205  energy(sigma->0) =        5.94398205


--------------------------------------------------------------------------------------------------------




----------------------------------------- Iteration    1(   3)  ---------------------------------------


     EDDAV:  cpu time    0.67: real time    0.67
       DOS:  cpu time    0.00: real time    0.00
    --------------------------------------------
      LOOP:  cpu time    0.67: real time    0.67

 eigenvalue-minimisations  :    20
 total energy-change (2. order) :-0.1307968E+02  (-0.1307820E+02)
 number of electron      10.0000000 magnetization 
 augmentation part       10.0000000 magnetization 

 Free energy of the ion-electron system (eV)
  ---------------------------------------------------
  alpha Z        PSCENC =         0.40002888
  Ewald energy   TEWEN  =       -69.55221552
  -1/2 Hartree   DENC   =      -424.07545068
  -exchange  EXHF       =         0.00000000
  -V(xc)+E(xc)   XCENC  =        36.74531155
  PAW double counting   =       455.07152327     -457.43959975
  entropy T*S    EENTRO =        -0.00000000
  eigenvalues    EBANDS =      -127.67571480
  atomic energy  EATOM  =       579.39041991
  ---------------------------------------------------
  free energy    TOTEN  =        -7.13569713 eV

  energy without entropy =       -7.13569713  energy(sigma->0) =       -7.13569713


--------------------------------------------------------------------------------------------------------




----------------------------------------- Iteration    1(   4)  ---------------------------------------


     EDDAV:  cpu time    0.60: real time    0.60
       DOS:  cpu time    0.00: real time    0.00
    --------------------------------------------
      LOOP:  cpu time    0.60: real time    0.60

 eigenvalue-minimisations  :    18
 total energy-change (2. order) :-0.5096462E+00  (-0.5096283E+00)
 number of electron      10.0000000 magnetization 
 augmentation part       10.0000000 magnetization 

 Free energy of the ion-electron system (eV)
  ---------------------------------------------------
  alpha Z        PSCENC =         0.40002888
  Ewald energy   TEWEN  =       -69.55221552
  -1/2 Hartree   DENC   =      -424.07545068
  -exchange  EXHF       =         0.00000000
  -V(xc)+E(xc)   XCENC  =        36.74531155
  PAW double counting   =       455.07152327     -457.43959975
  entropy T*S    EENTRO =        -0.00000000
  eigenvalues    EBANDS =      -128.18536097
  atomic energy  EATOM  =       579.39041991
  ---------------------------------------------------
  free energy    TOTEN  =        -7.64534330 eV

  energy without entropy =       -7.64534330  energy(sigma->0) =       -7.64534330


--------------------------------------------------------------------------------------------------------




----------------------------------------- Iteration    1(   5)  ---------------------------------------


     EDDAV:  cpu time    0.81: real time    0.81
       DOS:  cpu time    0.00: real time    0.00
    CHARGE:  cpu time    0.11: real time    0.11
    MIXING:  cpu time    0.04: real time    0.04
    --------------------------------------------
      LOOP:  cpu time    0.96: real time    0.96

 eigenvalue-minimisations  :    26
 total energy-change (2. order) :-0.1406485E-01  (-0.1406485E-01)
 number of electron      10.0000056 magnetization 
 augmentation part        0.7775696 magnetization 

 Broyden mixing:
  rms(total) = 0.13911E+01    rms(broyden)= 0.13906E+01
  rms(prec ) = 0.22792E+01
  weight for this iteration     100.00

 Free energy of the ion-electron system (eV)
  ---------------------------------------------------
  alpha Z        PSCENC =         0.40002888
  Ewald energy   TEWEN  =       -69.55221552
  -1/2 Hartree   DENC   =      -424.07545068
  -exchange  EXHF       =         0.00000000
  -V(xc)+E(xc)   XCENC  =        36.74531155
  PAW double counting   =       455.07152327     -457.43959975
  entropy T*S    EENTRO =        -0.00000000
  eigenvalues    EBANDS =      -128.19942582
  atomic energy  EATOM  =       579.39041991
  ---------------------------------------------------
  free energy    TOTEN  =        -7.65940815 eV

  energy without entropy =       -7.65940815  energy(sigma->0) =       -7.65940815


--------------------------------------------------------------------------------------------------------




----------------------------------------- Iteration    1(   6)  ---------------------------------------


    POTLOK:  cpu time    1.06: real time    1.06
    SETDIJ:  cpu time    0.00: real time    0.01
    EDDIAG:  cpu time    0.11: real time    0.11
  RMM-DIIS:  cpu time    0.45: real time    0.45
    ORTHCH:  cpu time    0.00: real time    0.01
       DOS:  cpu time    0.00: real time    0.00
    CHARGE:  cpu time    0.11: real time    0.11
    MIXING:  cpu time    0.04: real time    0.04
    --------------------------------------------
      LOOP:  cpu time    1.77: real time    1.77

 eigenvalue-minimisations  :    20
 total energy-change (2. order) :-0.2767455E+02  (-0.1910305E+01)
 number of electron       9.9999969 magnetization 
 augmentation part       -0.0323096 magnetization 

 Broyden mixing:
  rms(total) = 0.36963E+01    rms(broyden)= 0.36946E+01
  rms(prec ) = 0.58222E+01
  weight for this iteration     100.00

 eigenvalues of (default mixing * dielectric matrix)
  average eigenvalue GAMMA=   0.2713
  0.2713

 Free energy of the ion-electron system (eV)
  ---------------------------------------------------
  alpha Z        PSCENC =         0.40002888
  Ewald energy   TEWEN  =       -69.55221552
  -1/2 Hartree   DENC   =      -457.24193503
  -exchange  EXHF       =         0.00000000
  -V(xc)+E(xc)   XCENC  =        38.32213480
  PAW double counting   =       518.77236177     -521.51564158
  entropy T*S    EENTRO =        -0.00000000
  eigenvalues    EBANDS =      -123.90911478
  atomic energy  EATOM  =       579.39041991
  ---------------------------------------------------
  free energy    TOTEN  =       -35.33396155 eV

  energy without entropy =      -35.33396155  energy(sigma->0) =      -35.33396155


--------------------------------------------------------------------------------------------------------




----------------------------------------- Iteration    1(   7)  ---------------------------------------


    POTLOK:  cpu time    1.01: real time    1.01
    SETDIJ:  cpu time    0.00: real time    0.01
    EDDIAG:  cpu time    0.12: real time    0.12
  RMM-DIIS:  cpu time    0.50: real time    0.51
    ORTHCH:  cpu time    0.01: real time    0.01
       DOS:  cpu time    0.00: real time    0.00
    CHARGE:  cpu time    0.14: real time    0.14
    MIXING:  cpu time    0.04: real time    0.04
    --------------------------------------------
      LOOP:  cpu time    1.83: real time    1.83

 eigenvalue-minimisations  :    19
 total energy-change (2. order) : 0.3286821E+02  (-0.9499294E+00)
 number of electron      10.0000042 magnetization 
 augmentation part        0.4943115 magnetization 

 Broyden mixing:
  rms(total) = 0.34211E+00    rms(broyden)= 0.33255E+00
  rms(prec ) = 0.52122E+00
  weight for this iteration     100.00

 eigenvalues of (default mixing * dielectric matrix)
  average eigenvalue GAMMA=   0.1839
  0.2694  0.0983

 Free energy of the ion-electron system (eV)
  ---------------------------------------------------
  alpha Z        PSCENC =         0.40002888
  Ewald energy   TEWEN  =       -69.55221552
  -1/2 Hartree   DENC   =      -434.81706129
  -exchange  EXHF       =         0.00000000
  -V(xc)+E(xc)   XCENC  =        37.33731200
  PAW double counting   =       480.09295663     -482.61525158
  entropy T*S    EENTRO =        -0.05166458
  eigenvalues    EBANDS =      -112.65027882
  atomic energy  EATOM  =       579.39041991
  ---------------------------------------------------
  free energy    TOTEN  =        -2.46575437 eV

  energy without entropy =       -2.41408979  energy(sigma->0) =       -2.43992208


--------------------------------------------------------------------------------------------------------




----------------------------------------- Iteration    1(   8)  ---------------------------------------


    POTLOK:  cpu time    1.10: real time    1.10
    SETDIJ:  cpu time    0.01: real time    0.01
    EDDIAG:  cpu time    0.13: real time    0.13
  RMM-DIIS:  cpu time    0.56: real time    0.56
    ORTHCH:  cpu time    0.01: real time    0.01
       DOS:  cpu time    0.00: real time    0.00
    CHARGE:  cpu time    0.13: real time    0.13
    MIXING:  cpu time    0.04: real time    0.04
    --------------------------------------------
      LOOP:  cpu time    1.98: real time    1.98

 eigenvalue-minimisations  :    22
 total energy-change (2. order) :-0.1530002E-01  (-0.2446046E-01)
 number of electron      10.0000043 magnetization 
 augmentation part        0.5202864 magnetization 

 Broyden mixing:
  rms(total) = 0.33762E+00    rms(broyden)= 0.33720E+00
  rms(prec ) = 0.58393E+00
  weight for this iteration     100.00

 eigenvalues of (default mixing * dielectric matrix)
  average eigenvalue GAMMA=   0.7106
  1.3970  0.3340  0.4010

 Free energy of the ion-electron system (eV)
  ---------------------------------------------------
  alpha Z        PSCENC =         0.40002888
  Ewald energy   TEWEN  =       -69.55221552
  -1/2 Hartree   DENC   =      -434.43862528
  -exchange  EXHF       =         0.00000000
  -V(xc)+E(xc)   XCENC  =        37.25900444
  PAW double counting   =       479.34295351     -481.85123671
  entropy T*S    EENTRO =        -0.07808608
  eigenvalues    EBANDS =      -112.95329752
  atomic energy  EATOM  =       579.39041991
  ---------------------------------------------------
  free energy    TOTEN  =        -2.48105439 eV

  energy without entropy =       -2.40296830  energy(sigma->0) =       -2.44201134


--------------------------------------------------------------------------------------------------------




----------------------------------------- Iteration    1(   9)  ---------------------------------------


    POTLOK:  cpu time    1.02: real time    1.02
    SETDIJ:  cpu time    0.00: real time    0.01
    EDDIAG:  cpu time    0.11: real time    0.11
  RMM-DIIS:  cpu time    0.51: real time    0.51
    ORTHCH:  cpu time    0.00: real time    0.01
       DOS:  cpu time    0.00: real time    0.00
    CHARGE:  cpu time    0.13: real time    0.13
    MIXING:  cpu time    0.05: real time    0.05
    --------------------------------------------
      LOOP:  cpu time    1.83: real time    1.83

 eigenvalue-minimisations  :    20
 total energy-change (2. order) :-0.6902477E+01  (-0.8834265E-01)
 number of electron       9.9999967 magnetization 
 augmentation part       -0.0547697 magnetization 

 Broyden mixing:
  rms(total) = 0.30888E+01    rms(broyden)= 0.30871E+01
  rms(prec ) = 0.49876E+01
  weight for this iteration     100.00

 eigenvalues of (default mixing * dielectric matrix)
  average eigenvalue GAMMA=   0.5527
  0.8292  0.8292  0.2763  0.2763

 Free energy of the ion-electron system (eV)
  ---------------------------------------------------
  alpha Z        PSCENC =         0.40002888
  Ewald energy   TEWEN  =       -69.55221552
  -1/2 Hartree   DENC   =      -438.83818562
  -exchange  EXHF       =         0.00000000
  -V(xc)+E(xc)   XCENC  =        37.33517357
  PAW double counting   =       487.64001396     -490.10739366
  entropy T*S    EENTRO =        -0.00000000
  eigenvalues    EBANDS =      -115.65137267
  atomic energy  EATOM  =       579.39041991
  ---------------------------------------------------
  free energy    TOTEN  =        -9.38353114 eV

  energy without entropy =       -9.38353114  energy(sigma->0) =       -9.38353114


--------------------------------------------------------------------------------------------------------




----------------------------------------- Iteration    1(  10)  ---------------------------------------


    POTLOK:  cpu time    1.10: real time    1.10
    SETDIJ:  cpu time    0.00: real time    0.01
    EDDIAG:  cpu time    0.13: real time    0.13
  RMM-DIIS:  cpu time    0.55: real time    0.55
    ORTHCH:  cpu time    0.01: real time    0.01
       DOS:  cpu time    0.00: real time    0.00
    CHARGE:  cpu time    0.14: real time    0.14
    MIXING:  cpu time    0.06: real time    0.06
    --------------------------------------------
      LOOP:  cpu time    2.00: real time    2.00

 eigenvalue-minimisations  :    20
 total energy-change (2. order) : 0.6656584E+01  (-0.1414639E+00)
 number of electron      10.0000053 magnetization 
 augmentation part        0.6339223 magnetization 

 Broyden mixing:
  rms(total) = 0.79617E+00    rms(broyden)= 0.79034E+00
  rms(prec ) = 0.13482E+01
  weight for this iteration     100.00

 eigenvalues of (default mixing * dielectric matrix)
  average eigenvalue GAMMA=   0.7516
  1.6489  1.0690  0.5236  0.2584  0.2584

 Free energy of the ion-electron system (eV)
  ---------------------------------------------------
  alpha Z        PSCENC =         0.40002888
  Ewald energy   TEWEN  =       -69.55221552
  -1/2 Hartree   DENC   =      -430.89797324
  -exchange  EXHF       =         0.00000000
  -V(xc)+E(xc)   XCENC  =        37.02199614
  PAW double counting   =       473.48814288     -475.86681562
  entropy T*S    EENTRO =        -0.00358318
  eigenvalues    EBANDS =      -116.70694749
  atomic energy  EATOM  =       579.39041991
  ---------------------------------------------------
  free energy    TOTEN  =        -2.72694725 eV

  energy without entropy =       -2.72336406  energy(sigma->0) =       -2.72515566


--------------------------------------------------------------------------------------------------------




----------------------------------------- Iteration    1(  11)  ---------------------------------------


    POTLOK:  cpu time    1.18: real time    1.18
    SETDIJ:  cpu time    0.01: real time    0.01
    EDDIAG:  cpu time    0.13: real time    0.13
  RMM-DIIS:  cpu time    0.54: real time    0.54
    ORTHCH:  cpu time    0.01: real time    0.01
       DOS:  cpu time    0.00: real time    0.00
    CHARGE:  cpu time    0.14: real time    0.14
    MIXING:  cpu time    0.06: real time    0.06
    --------------------------------------------
      LOOP:  cpu time    2.06: real time    2.07

 eigenvalue-minimisations  :    19
 total energy-change (2. order) :-0.7303533E-01  (-0.1563038E-01)
 number of electron      10.0000054 magnetization 
 augmentation part        0.6566894 magnetization 

 Broyden mixing:
  rms(total) = 0.88189E+00    rms(broyden)= 0.88165E+00
  rms(prec ) = 0.14636E+01
  weight for this iteration     100.00

 eigenvalues of (default mixing * dielectric matrix)
  average eigenvalue GAMMA=   0.9216
  1.8469  1.8469  0.6561  0.6561  0.2618  0.2618

 Free energy of the ion-electron system (eV)
  ---------------------------------------------------
  alpha Z        PSCENC =         0.40002888
  Ewald energy   TEWEN  =       -69.55221552
  -1/2 Hartree   DENC   =      -429.68602824
  -exchange  EXHF       =         0.00000000
  -V(xc)+E(xc)   XCENC  =        36.85849344
  PAW double counting   =       470.60910528     -472.93422416
  entropy T*S    EENTRO =        -0.00338325
  eigenvalues    EBANDS =      -117.88217892
  atomic energy  EATOM  =       579.39041991
  ---------------------------------------------------
  free energy    TOTEN  =        -2.79998258 eV

  energy without entropy =       -2.79659933  energy(sigma->0) =       -2.79829095


--------------------------------------------------------------------------------------------------------




----------------------------------------- Iteration    1(  12)  ---------------------------------------


    POTLOK:  cpu time    1.18: real time    1.18
    SETDIJ:  cpu time    0.00: real time    0.01
    EDDIAG:  cpu time    0.12: real time    0.12
  RMM-DIIS:  cpu time    0.53: real time    0.53
    ORTHCH:  cpu time    0.01: real time    0.01
       DOS:  cpu time    0.00: real time    0.00
    CHARGE:  cpu time    0.14: real time    0.14
    MIXING:  cpu time    0.06: real time    0.06
    --------------------------------------------
      LOOP:  cpu time    2.04: real time    2.05

 eigenvalue-minimisations  :    20
 total energy-change (2. order) :-0.3430161E-03  (-0.2744402E-02)
 number of electron      10.0000054 magnetization 
 augmentation part        0.6645446 magnetization 

 Broyden mixing:
  rms(total) = 0.91429E+00    rms(broyden)= 0.91427E+00
  rms(prec ) = 0.15017E+01
  weight for this iteration     100.00

 eigenvalues of (default mixing * dielectric matrix)
  average eigenvalue GAMMA=   1.2209
  3.3374  2.2506  0.9306  0.7523  0.7523  0.2615  0.2615

 Free energy of the ion-electron system (eV)
  ---------------------------------------------------
  alpha Z        PSCENC =         0.40002888
  Ewald energy   TEWEN  =       -69.55221552
  -1/2 Hartree   DENC   =      -429.36615463
  -exchange  EXHF       =         0.00000000
  -V(xc)+E(xc)   XCENC  =        36.82754164
  PAW double counting   =       469.22204782     -471.53755708
  entropy T*S    EENTRO =        -0.00339189
  eigenvalues    EBANDS =      -118.18104472
  atomic energy  EATOM  =       579.39041991
  ---------------------------------------------------
  free energy    TOTEN  =        -2.80032559 eV

  energy without entropy =       -2.79693370  energy(sigma->0) =       -2.79862965


--------------------------------------------------------------------------------------------------------




----------------------------------------- Iteration    1(  13)  ---------------------------------------


    POTLOK:  cpu time    1.13: real time    1.13
    SETDIJ:  cpu time    0.00: real time    0.01
    EDDIAG:  cpu time    0.12: real time    0.12
  RMM-DIIS:  cpu time    0.45: real time    0.45
    ORTHCH:  cpu time    0.01: real time    0.01
       DOS:  cpu time    0.00: real time    0.00
    CHARGE:  cpu time    0.12: real time    0.12
    MIXING:  cpu time    0.06: real time    0.06
    --------------------------------------------
      LOOP:  cpu time    1.90: real time    1.90

 eigenvalue-minimisations  :    18
 total energy-change (2. order) : 0.4640965E+00  (-0.4982483E-02)
 number of electron      10.0000024 magnetization 
 augmentation part        0.4326969 magnetization 

 Broyden mixing:
  rms(total) = 0.28791E+00    rms(broyden)= 0.28410E+00
  rms(prec ) = 0.42085E+00
  weight for this iteration     100.00

 eigenvalues of (default mixing * dielectric matrix)
  average eigenvalue GAMMA=   1.0672
  3.2660  2.3179  0.8966  0.7641  0.7641  0.2615  0.2615  0.0058

 Free energy of the ion-electron system (eV)
  ---------------------------------------------------
  alpha Z        PSCENC =         0.40002888
  Ewald energy   TEWEN  =       -69.55221552
  -1/2 Hartree   DENC   =      -431.75754393
  -exchange  EXHF       =         0.00000000
  -V(xc)+E(xc)   XCENC  =        36.92180254
  PAW double counting   =       470.30795627     -472.69017766
  entropy T*S    EENTRO =        -0.20344620
  eigenvalues    EBANDS =      -115.15305335
  atomic energy  EATOM  =       579.39041991
  ---------------------------------------------------
  free energy    TOTEN  =        -2.33622906 eV

  energy without entropy =       -2.13278287  energy(sigma->0) =       -2.23450597


--------------------------------------------------------------------------------------------------------




----------------------------------------- Iteration    1(  14)  ---------------------------------------


    POTLOK:  cpu time    1.03: real time    1.03
    SETDIJ:  cpu time    0.01: real time    0.01
    EDDIAG:  cpu time    0.12: real time    0.12
  RMM-DIIS:  cpu time    0.49: real time    0.49
    ORTHCH:  cpu time    0.01: real time    0.01
       DOS:  cpu time    0.00: real time    0.00
    CHARGE:  cpu time    0.12: real time    0.13
    MIXING:  cpu time    0.06: real time    0.06
    --------------------------------------------
      LOOP:  cpu time    1.84: real time    1.84

 eigenvalue-minimisations  :    21
 total energy-change (2. order) :-0.1167468E+00  (-0.7277298E-03)
 number of electron      10.0000006 magnetization 
 augmentation part        0.3197029 magnetization 

 Broyden mixing:
  rms(total) = 0.87405E+00    rms(broyden)= 0.87315E+00
  rms(prec ) = 0.13817E+01
  weight for this iteration     100.00

 eigenvalues of (default mixing * dielectric matrix)
  average eigenvalue GAMMA=   1.0551
  2.8702  2.8702  0.9935  0.9935  0.2615  0.2615  0.5603  0.5603  0.1246

 Free energy of the ion-electron system (eV)
  ---------------------------------------------------
  alpha Z        PSCENC =         0.40002888
  Ewald energy   TEWEN  =       -69.55221552
  -1/2 Hartree   DENC   =      -431.97074204
  -exchange  EXHF       =         0.00000000
  -V(xc)+E(xc)   XCENC  =        36.91646143
  PAW double counting   =       470.34607835     -472.72627305
  entropy T*S    EENTRO =        -0.22936668
  eigenvalues    EBANDS =      -115.02736717
  atomic energy  EATOM  =       579.39041991
  ---------------------------------------------------
  free energy    TOTEN  =        -2.45297589 eV

  energy without entropy =       -2.22360921  energy(sigma->0) =       -2.33829255


--------------------------------------------------------------------------------------------------------




----------------------------------------- Iteration    1(  15)  ---------------------------------------


    POTLOK:  cpu time    0.99: real time    0.99
    SETDIJ:  cpu time    0.00: real time    0.01
    EDDIAG:  cpu time    0.11: real time    0.11
  RMM-DIIS:  cpu time    0.40: real time    0.40
    ORTHCH:  cpu time    0.01: real time    0.01
       DOS:  cpu time    0.00: real time    0.00
    CHARGE:  cpu time    0.12: real time    0.12
    MIXING:  cpu time    0.06: real time    0.06
    --------------------------------------------
      LOOP:  cpu time    1.68: real time    1.69

 eigenvalue-minimisations  :    18
 total energy-change (2. order) :-0.1612899E+00  (-0.6451366E-03)
 number of electron       9.9999992 magnetization 
 augmentation part        0.2232181 magnetization 

 Broyden mixing:
  rms(total) = 0.13958E+01    rms(broyden)= 0.13954E+01
  rms(prec ) = 0.22259E+01
  weight for this iteration     100.00

 eigenvalues of (default mixing * dielectric matrix)
  average eigenvalue GAMMA=   1.0464
  3.7396  2.3182  1.0417  1.0417  0.2615  0.2615  0.6172  0.4996  0.4996  0.1836

 Free energy of the ion-electron system (eV)
  ---------------------------------------------------
  alpha Z        PSCENC =         0.40002888
  Ewald energy   TEWEN  =       -69.55221552
  -1/2 Hartree   DENC   =      -432.33367806
  -exchange  EXHF       =         0.00000000
  -V(xc)+E(xc)   XCENC  =        36.96220292
  PAW double counting   =       471.07653972     -473.45943420
  entropy T*S    EENTRO =        -0.19645424
  eigenvalues    EBANDS =      -114.90167519
  atomic energy  EATOM  =       579.39041991
  ---------------------------------------------------
  free energy    TOTEN  =        -2.61426578 eV

  energy without entropy =       -2.41781154  energy(sigma->0) =       -2.51603866


--------------------------------------------------------------------------------------------------------




----------------------------------------- Iteration    1(  16)  ---------------------------------------


    POTLOK:  cpu time    1.01: real time    1.01
    SETDIJ:  cpu time    0.00: real time    0.00
    EDDIAG:  cpu time    0.09: real time    0.09
  RMM-DIIS:  cpu time    0.42: real time    0.43
    ORTHCH:  cpu time    0.00: real time    0.01
       DOS:  cpu time    0.00: real time    0.00
    CHARGE:  cpu time    0.12: real time    0.12
    MIXING:  cpu time    0.07: real time    0.07
    --------------------------------------------
      LOOP:  cpu time    1.73: real time    1.74

 eigenvalue-minimisations  :    20
 total energy-change (2. order) : 0.2327769E-01  (-0.1190253E-03)
 number of electron       9.9999990 magnetization 
 augmentation part        0.2144585 magnetization 

 Broyden mixing:
  rms(total) = 0.14423E+01    rms(broyden)= 0.14423E+01
  rms(prec ) = 0.23026E+01
  weight for this iteration     100.00

 eigenvalues of (default mixing * dielectric matrix)
  average eigenvalue GAMMA=   0.9550
  3.7594  2.2945  1.0442  1.0442  0.2615  0.2615  0.6229  0.5004  0.5004  0.1875
  0.0285

 Free energy of the ion-electron system (eV)
  ---------------------------------------------------
  alpha Z        PSCENC =         0.40002888
  Ewald energy   TEWEN  =       -69.55221552
  -1/2 Hartree   DENC   =      -432.35682632
  -exchange  EXHF       =         0.00000000
  -V(xc)+E(xc)   XCENC  =        36.99449566
  PAW double counting   =       471.13565788     -473.51867796
  entropy T*S    EENTRO =        -0.19137436
  eigenvalues    EBANDS =      -114.89249624
  atomic energy  EATOM  =       579.39041991
  ---------------------------------------------------
  free energy    TOTEN  =        -2.59098809 eV

  energy without entropy =       -2.39961372  energy(sigma->0) =       -2.49530091


--------------------------------------------------------------------------------------------------------




----------------------------------------- Iteration    1(  17)  ---------------------------------------


    POTLOK:  cpu time    1.02: real time    1.02
    SETDIJ:  cpu time    0.00: real time    0.01
    EDDIAG:  cpu time    0.11: real time    0.11
  RMM-DIIS:  cpu time    0.35: real time    0.35
    ORTHCH:  cpu time    0.00: real time    0.01
       DOS:  cpu time    0.00: real time    0.00
    CHARGE:  cpu time    0.12: real time    0.12
    MIXING:  cpu time    0.07: real time    0.07
    --------------------------------------------
      LOOP:  cpu time    1.67: real time    1.68

 eigenvalue-minimisations  :    16
 total energy-change (2. order) : 0.8363554E-01  (-0.2839949E-04)
 number of electron       9.9999994 magnetization 
 augmentation part        0.2394212 magnetization 

 Broyden mixing:
  rms(total) = 0.13060E+01    rms(broyden)= 0.13060E+01
  rms(prec ) = 0.20823E+01
  weight for this iteration     100.00

 eigenvalues of (default mixing * dielectric matrix)
  average eigenvalue GAMMA=   0.9590
  3.6285  2.3385  1.1786  1.1786  0.5894  0.5894  0.2615  0.2615  0.4800  0.3954
  0.3954  0.2117

 Free energy of the ion-electron system (eV)
  ---------------------------------------------------
  alpha Z        PSCENC =         0.40002888
  Ewald energy   TEWEN  =       -69.55221552
  -1/2 Hartree   DENC   =      -432.21000115
  -exchange  EXHF       =         0.00000000
  -V(xc)+E(xc)   XCENC  =        36.99401994
  PAW double counting   =       470.63384151     -473.01459406
  entropy T*S    EENTRO =        -0.20603023
  eigenvalues    EBANDS =      -114.94282183
  atomic energy  EATOM  =       579.39041991
  ---------------------------------------------------
  free energy    TOTEN  =        -2.50735255 eV

  energy without entropy =       -2.30132232  energy(sigma->0) =       -2.40433743


--------------------------------------------------------------------------------------------------------




----------------------------------------- Iteration    1(  18)  ---------------------------------------


    POTLOK:  cpu time    0.98: real time    0.98
    SETDIJ:  cpu time    0.01: real time    0.01
    EDDIAG:  cpu time    0.10: real time    0.11
  RMM-DIIS:  cpu time    0.39: real time    0.39
    ORTHCH:  cpu time    0.01: real time    0.01
       DOS:  cpu time    0.00: real time    0.00
    CHARGE:  cpu time    0.12: real time    0.12
    MIXING:  cpu time    0.07: real time    0.07
    --------------------------------------------
      LOOP:  cpu time    1.68: real time    1.68

 eigenvalue-minimisations  :    18
 total energy-change (2. order) : 0.9251530E-01  (-0.1936835E-03)
 number of electron      10.0000001 magnetization 
 augmentation part        0.2841136 magnetization 

 Broyden mixing:
  rms(total) = 0.10614E+01    rms(broyden)= 0.10614E+01
  rms(prec ) = 0.16908E+01
  weight for this iteration     100.00

 eigenvalues of (default mixing * dielectric matrix)
  average eigenvalue GAMMA=   0.9454
  3.8011  2.3172  1.1667  1.1667  0.4862  0.5832  0.5832  0.4671  0.4671  0.5067
  0.2615  0.2615  0.2215

 Free energy of the ion-electron system (eV)
  ---------------------------------------------------
  alpha Z        PSCENC =         0.40002888
  Ewald energy   TEWEN  =       -69.55221552
  -1/2 Hartree   DENC   =      -431.81275127
  -exchange  EXHF       =         0.00000000
  -V(xc)+E(xc)   XCENC  =        36.95940624
  PAW double counting   =       468.97907933     -471.35116858
  entropy T*S    EENTRO =        -0.22450706
  eigenvalues    EBANDS =      -115.20312918
  atomic energy  EATOM  =       579.39041991
  ---------------------------------------------------
  free energy    TOTEN  =        -2.41483725 eV

  energy without entropy =       -2.19033018  energy(sigma->0) =       -2.30258371


--------------------------------------------------------------------------------------------------------




----------------------------------------- Iteration    1(  19)  ---------------------------------------


    POTLOK:  cpu time    1.09: real time    1.09
    SETDIJ:  cpu time    0.00: real time    0.01
    EDDIAG:  cpu time    0.14: real time    0.14
  RMM-DIIS:  cpu time    0.48: real time    0.48
    ORTHCH:  cpu time    0.01: real time    0.01
       DOS:  cpu time    0.00: real time    0.00
    CHARGE:  cpu time    0.14: real time    0.14
    MIXING:  cpu time    0.09: real time    0.09
    --------------------------------------------
      LOOP:  cpu time    1.95: real time    4.26

 eigenvalue-minimisations  :    19
 total energy-change (2. order) : 0.1187371E+00  (-0.1146254E-02)
 number of electron      10.0000017 magnetization 
 augmentation part        0.3835825 magnetization 

 Broyden mixing:
  rms(total) = 0.52288E+00    rms(broyden)= 0.52192E+00
  rms(prec ) = 0.83016E+00
  weight for this iteration     100.00

 eigenvalues of (default mixing * dielectric matrix)
  average eigenvalue GAMMA=   1.0794
  4.2824  1.5831  2.2858  1.1157  1.1157  0.8833  0.8833  0.2615  0.2615  0.5694
  0.5694  0.5824  0.5000  0.2185

 Free energy of the ion-electron system (eV)
  ---------------------------------------------------
  alpha Z        PSCENC =         0.40002888
  Ewald energy   TEWEN  =       -69.55221552
  -1/2 Hartree   DENC   =      -430.81451554
  -exchange  EXHF       =         0.00000000
  -V(xc)+E(xc)   XCENC  =        36.87355390
  PAW double counting   =       465.86909410     -468.21364406
  entropy T*S    EENTRO =        -0.22668611
  eigenvalues    EBANDS =      -116.02213565
  atomic energy  EATOM  =       579.39041991
  ---------------------------------------------------
  free energy    TOTEN  =        -2.29610010 eV

  energy without entropy =       -2.06941399  energy(sigma->0) =       -2.18275705


--------------------------------------------------------------------------------------------------------




----------------------------------------- Iteration    1(  20)  ---------------------------------------


    POTLOK:  cpu time    1.11: real time    1.11
    SETDIJ:  cpu time    0.00: real time    0.01
    EDDIAG:  cpu time    0.12: real time    0.13
  RMM-DIIS:  cpu time    0.60: real time    0.60
    ORTHCH:  cpu time    0.01: real time    0.01
       DOS:  cpu time    0.00: real time    0.00
    CHARGE:  cpu time    0.16: real time    0.16
    MIXING:  cpu time    0.12: real time    0.12
    --------------------------------------------
      LOOP:  cpu time    2.13: real time    2.13

 eigenvalue-minimisations  :    19
 total energy-change (2. order) : 0.4116573E-02  (-0.1364934E-02)
 number of electron      10.0000031 magnetization 
 augmentation part        0.4736627 magnetization 

 Broyden mixing:
  rms(total) = 0.58347E-01    rms(broyden)= 0.49314E-01
  rms(prec ) = 0.73336E-01
  weight for this iteration     100.00
  WARNING: grid for Broyden might be to small

 eigenvalues of (default mixing * dielectric matrix)
  average eigenvalue GAMMA=   1.2029
  4.4196  2.2187  2.0424  1.6532  1.6532  0.9812  0.9812  0.7993  0.7993  0.2615
  0.2615  0.6366  0.6366  0.4815  0.2185

 Free energy of the ion-electron system (eV)
  ---------------------------------------------------
  alpha Z        PSCENC =         0.40002888
  Ewald energy   TEWEN  =       -69.55221552
  -1/2 Hartree   DENC   =      -429.92209985
  -exchange  EXHF       =         0.00000000
  -V(xc)+E(xc)   XCENC  =        36.78297791
  PAW double counting   =       463.78989485     -466.11034488
  entropy T*S    EENTRO =        -0.18321188
  eigenvalues    EBANDS =      -116.88743296
  atomic energy  EATOM  =       579.39041991
  ---------------------------------------------------
  free energy    TOTEN  =        -2.29198353 eV

  energy without entropy =       -2.10877165  energy(sigma->0) =       -2.20037759


--------------------------------------------------------------------------------------------------------




----------------------------------------- Iteration    1(  21)  ---------------------------------------


    POTLOK:  cpu time    1.21: real time    1.21
    SETDIJ:  cpu time    0.01: real time    0.01
    EDDIAG:  cpu time    0.13: real time    0.13
  RMM-DIIS:  cpu time    0.55: real time    0.55
    ORTHCH:  cpu time    0.01: real time    0.01
       DOS:  cpu time    0.00: real time    0.00
    CHARGE:  cpu time    0.14: real time    0.14
    MIXING:  cpu time    0.10: real time    0.11
    --------------------------------------------
      LOOP:  cpu time    2.15: real time    2.15

 eigenvalue-minimisations  :    19
 total energy-change (2. order) :-0.3269667E-01  (-0.2628494E-03)
 number of electron      10.0000030 magnetization 
 augmentation part        0.4656086 magnetization 

 Broyden mixing:
  rms(total) = 0.88818E-01    rms(broyden)= 0.88688E-01
  rms(prec ) = 0.14047E+00
  weight for this iteration     100.00

 eigenvalues of (default mixing * dielectric matrix)
  average eigenvalue GAMMA=   1.2208
  3.6365  2.3805  2.8633  2.0636  2.0636  1.0054  0.8680  0.8680  0.2185  0.2615
  0.2615  0.7339  0.7339  0.5648  0.5648  0.4454

 Free energy of the ion-electron system (eV)
  ---------------------------------------------------
  alpha Z        PSCENC =         0.40002888
  Ewald energy   TEWEN  =       -69.55221552
  -1/2 Hartree   DENC   =      -429.73417879
  -exchange  EXHF       =         0.00000000
  -V(xc)+E(xc)   XCENC  =        36.74775416
  PAW double counting   =       463.96345018     -466.27520083
  entropy T*S    EENTRO =        -0.18988943
  eigenvalues    EBANDS =      -117.07484876
  atomic energy  EATOM  =       579.39041991
  ---------------------------------------------------
  free energy    TOTEN  =        -2.32468020 eV

  energy without entropy =       -2.13479077  energy(sigma->0) =       -2.22973549


--------------------------------------------------------------------------------------------------------




----------------------------------------- Iteration    1(  22)  ---------------------------------------


    POTLOK:  cpu time    1.11: real time    1.11
    SETDIJ:  cpu time    0.00: real time    0.01
    EDDIAG:  cpu time    0.12: real time    0.12
  RMM-DIIS:  cpu time    0.43: real time    0.43
    ORTHCH:  cpu time    0.01: real time    0.01
       DOS:  cpu time    0.00: real time    0.00
    CHARGE:  cpu time    0.12: real time    0.12
    MIXING:  cpu time    0.09: real time    0.09
    --------------------------------------------
      LOOP:  cpu time    1.88: real time    1.89

 eigenvalue-minimisations  :    19
 total energy-change (2. order) :-0.2218014E-01  (-0.7159267E-03)
 number of electron      10.0000040 magnetization 
 augmentation part        0.5359830 magnetization 

 Broyden mixing:
  rms(total) = 0.27818E+00    rms(broyden)= 0.27754E+00
  rms(prec ) = 0.44773E+00
  weight for this iteration     100.00

 eigenvalues of (default mixing * dielectric matrix)
  average eigenvalue GAMMA=   1.3709
  4.4858  4.4858  2.3618  2.4862  1.4839  1.4839  0.8781  0.8781  0.8290  0.8290
  0.2615  0.2615  0.6785  0.6087  0.6087  0.4661  0.2185

 Free energy of the ion-electron system (eV)
  ---------------------------------------------------
  alpha Z        PSCENC =         0.40002888
  Ewald energy   TEWEN  =       -69.55221552
  -1/2 Hartree   DENC   =      -428.94742315
  -exchange  EXHF       =         0.00000000
  -V(xc)+E(xc)   XCENC  =        36.69567298
  PAW double counting   =       463.12575992     -465.41551060
  entropy T*S    EENTRO =        -0.13052173
  eigenvalues    EBANDS =      -117.91307102
  atomic energy  EATOM  =       579.39041991
  ---------------------------------------------------
  free energy    TOTEN  =        -2.34686034 eV

  energy without entropy =       -2.21633861  energy(sigma->0) =       -2.28159947


--------------------------------------------------------------------------------------------------------




----------------------------------------- Iteration    1(  23)  ---------------------------------------


    POTLOK:  cpu time    1.04: real time    1.04
    SETDIJ:  cpu time    0.01: real time    0.01
    EDDIAG:  cpu time    0.11: real time    0.11
  RMM-DIIS:  cpu time    0.41: real time    0.42
    ORTHCH:  cpu time    0.01: real time    0.01
       DOS:  cpu time    0.00: real time    0.00
    CHARGE:  cpu time    0.12: real time    0.12
    MIXING:  cpu time    0.12: real time    0.12
    --------------------------------------------
      LOOP:  cpu time    1.81: real time    1.81

 eigenvalue-minimisations  :    19
 total energy-change (2. order) : 0.2215101E-01  (-0.1514111E-03)
 number of electron      10.0000033 magnetization 
 augmentation part        0.4857037 magnetization 

 Broyden mixing:
  rms(total) = 0.16618E-01    rms(broyden)= 0.13984E-01
  rms(prec ) = 0.23374E-01
  weight for this iteration     100.00
  WARNING: grid for Broyden might be to small

 eigenvalues of (default mixing * dielectric matrix)
  average eigenvalue GAMMA=   1.4159
  5.6755  4.5975  2.3866  2.3158  1.5731  1.5731  0.2185  0.9880  0.9880  0.2615
  0.2615  0.7883  0.7883  0.7754  0.6153  0.6153  0.4714  0.5938

 Free energy of the ion-electron system (eV)
  ---------------------------------------------------
  alpha Z        PSCENC =         0.40002888
  Ewald energy   TEWEN  =       -69.55221552
  -1/2 Hartree   DENC   =      -429.22796070
  -exchange  EXHF       =         0.00000000
  -V(xc)+E(xc)   XCENC  =        36.71059043
  PAW double counting   =       463.83699434     -466.13118519
  entropy T*S    EENTRO =        -0.17704657
  eigenvalues    EBANDS =      -117.57433490
  atomic energy  EATOM  =       579.39041991
  ---------------------------------------------------
  free energy    TOTEN  =        -2.32470933 eV

  energy without entropy =       -2.14766276  energy(sigma->0) =       -2.23618605


--------------------------------------------------------------------------------------------------------




----------------------------------------- Iteration    1(  24)  ---------------------------------------


    POTLOK:  cpu time    1.13: real time    1.13
    SETDIJ:  cpu time    0.01: real time    0.01
    EDDIAG:  cpu time    0.12: real time    0.12
  RMM-DIIS:  cpu time    0.46: real time    0.47
    ORTHCH:  cpu time    0.01: real time    0.01
       DOS:  cpu time    0.00: real time    0.00
    CHARGE:  cpu time    0.14: real time    0.14
    MIXING:  cpu time    0.12: real time    0.13
    --------------------------------------------
      LOOP:  cpu time    2.00: real time    2.00

 eigenvalue-minimisations  :    17
 total energy-change (2. order) :-0.6153237E-02  (-0.2966286E-04)
 number of electron      10.0000034 magnetization 
 augmentation part        0.4961001 magnetization 

 Broyden mixing:
  rms(total) = 0.65227E-01    rms(broyden)= 0.65225E-01
  rms(prec ) = 0.10715E+00
  weight for this iteration     100.00

 eigenvalues of (default mixing * dielectric matrix)
  average eigenvalue GAMMA=   1.4240
  6.7803  3.9676  2.3951  2.1445  1.7550  1.7550  0.2185  1.0322  1.0322  0.2615
  0.2615  0.7780  0.7780  0.8397  0.6847  0.6847  0.6099  0.6099  0.4671

 Free energy of the ion-electron system (eV)
  ---------------------------------------------------
  alpha Z        PSCENC =         0.40002888
  Ewald energy   TEWEN  =       -69.55221552
  -1/2 Hartree   DENC   =      -429.13171040
  -exchange  EXHF       =         0.00000000
  -V(xc)+E(xc)   XCENC  =        36.70079498
  PAW double counting   =       463.45950622     -465.75071243
  entropy T*S    EENTRO =        -0.16920390
  eigenvalues    EBANDS =      -117.67777030
  atomic energy  EATOM  =       579.39041991
  ---------------------------------------------------
  free energy    TOTEN  =        -2.33086257 eV

  energy without entropy =       -2.16165867  energy(sigma->0) =       -2.24626062


--------------------------------------------------------------------------------------------------------




----------------------------------------- Iteration    1(  25)  ---------------------------------------


    POTLOK:  cpu time    1.06: real time    1.06
    SETDIJ:  cpu time    0.00: real time    0.00
    EDDIAG:  cpu time    0.10: real time    0.10
  RMM-DIIS:  cpu time    0.30: real time    0.30
    ORTHCH:  cpu time    0.01: real time    0.01
       DOS:  cpu time    0.00: real time    0.00
    --------------------------------------------
      LOOP:  cpu time    1.48: real time    1.48

 eigenvalue-minimisations  :    14
 total energy-change (2. order) :-0.9760697E-04  (-0.1199823E-04)
 number of electron      10.0000034 magnetization 
 augmentation part        0.4961001 magnetization 

 Free energy of the ion-electron system (eV)
  ---------------------------------------------------
  alpha Z        PSCENC =         0.40002888
  Ewald energy   TEWEN  =       -69.55221552
  -1/2 Hartree   DENC   =      -429.19763632
  -exchange  EXHF       =         0.00000000
  -V(xc)+E(xc)   XCENC  =        36.70017713
  PAW double counting   =       463.25984370     -465.55135222
  entropy T*S    EENTRO =        -0.18734429
  eigenvalues    EBANDS =      -117.59288145
  atomic energy  EATOM  =       579.39041991
  ---------------------------------------------------
  free energy    TOTEN  =        -2.33096018 eV

  energy without entropy =       -2.14361589  energy(sigma->0) =       -2.23728803


--------------------------------------------------------------------------------------------------------




 average (electrostatic) potential at core
  the test charge radii are     0.6991  0.7215
  (the norm of the test charge is              1.0000)
       1 -64.4664       2 -81.3245
 
 
 
 E-fermi :  -6.8775     XC(G=0):  -0.8626     alpha+bet : -0.1603


 k-point   1 :       0.0000    0.0000    0.0000
  band No.  band energies     occupation 
      1     -21.8660      2.00000
      2     -15.3280      2.00000
      3      -7.5416      2.00000
      4      -7.0654      1.81595
      5      -7.0648      1.81446
      6      -6.6901      0.18509
      7      -6.6899      0.18451
      8      -6.1088      0.00000
      9      -0.4976      0.00000


--------------------------------------------------------------------------------------------------------


 soft charge-density along one line, spin component           1
         0         1         2         3         4         5         6         7         8         9
 total charge-density along one line
 
 pseudopotential strength for first ion, spin component:           1
 10.559  14.051  -0.000   0.002   0.000   0.000  -0.005  -0.000
 14.051  18.696  -0.000   0.002   0.000   0.000  -0.007  -0.000
 -0.000  -0.000  -4.714  -0.000  -0.000   9.251   0.000   0.000
  0.002   0.002  -0.000  -4.709  -0.000   0.000   9.241   0.000
  0.000   0.000  -0.000  -0.000  -4.714   0.000   0.000   9.251
  0.000   0.000   9.251   0.000   0.000 -20.309  -0.000  -0.000
 -0.005  -0.007   0.000   9.241   0.000  -0.000 -20.288  -0.000
 -0.000  -0.000   0.000   0.000   9.251  -0.000  -0.000 -20.309
 total augmentation occupancy for first ion, spin component:           1
  1.515   0.194   0.000   0.012   0.000   0.000  -0.002   0.000
  0.194   0.033   0.000  -0.071   0.000   0.000  -0.001   0.000
  0.000   0.000   0.523   0.000   0.000   0.001   0.000   0.000
  0.012  -0.071   0.000   0.653   0.000   0.000   0.007   0.000
  0.000   0.000   0.000   0.000   0.523   0.000   0.000   0.001
  0.000   0.000   0.001   0.000   0.000   0.000   0.000   0.000
 -0.002  -0.001   0.000   0.007   0.000   0.000   0.000   0.000
  0.000   0.000   0.000   0.000   0.001   0.000   0.000   0.000


------------------------ aborting loop because EDIFF is reached ----------------------------------------


    CHARGE:  cpu time    0.11: real time    0.11
    FORLOC:  cpu time    0.08: real time    0.08
    FORNL :  cpu time    0.06: real time    0.06
    STRESS:  cpu time    0.34: real time    0.34
    FORCOR:  cpu time    1.22: real time    1.22
    FORHAR:  cpu time    0.30: real time    0.30
    MIXING:  cpu time    0.11: real time    0.11

  FORCE on cell =-STRESS in cart. coord.  units (eV):
  Direction    XX          YY          ZZ          XY          YZ          ZX
  --------------------------------------------------------------------------------------
  Alpha Z     0.40003     0.40003     0.40003
  Ewald     -64.64580   -68.34186    63.43543     0.00000     0.00000    -0.00000
  Hartree   108.94578   105.35776   211.31829    -0.00000    -0.00000    -0.00000
  E(xc)     -40.25162   -40.25064   -40.02524    -0.00000     0.00000    -0.00000
  Local    -173.25182  -165.96791  -403.55559    -0.00000     0.00000    -0.00000
  n-local   -14.29560   -14.29129   -13.85461     0.00000    -0.00000    -0.00000
  augment     5.73815     5.74000     5.32555     0.00000     0.00000     0.00000
  Kinetic   175.58203   175.61936   168.31869     0.00000     0.00000    -0.00000
  Fock        0.00000     0.00000     0.00000     0.00000     0.00000     0.00000
  -------------------------------------------------------------------------------------
  Total      -1.77887    -1.73456    -8.63745     0.00000     0.00000     0.00000
  in kB      -2.60919    -2.54420   -12.66917     0.00000     0.00000     0.00000
  external pressure =       -5.94 kB  Pullay stress =        0.00 kB


 VOLUME and BASIS-vectors are now :
 -----------------------------------------------------------------------------
  energy-cutoff  :      400.00
  volume of cell :     1092.32
      direct lattice vectors                 reciprocal lattice vectors
    10.100000000  0.000000000  0.000000000     0.099009901  0.000000000  0.000000000
     0.000000000 10.300000000  0.000000000     0.000000000  0.097087379  0.000000000
     0.000000000  0.000000000 10.500000000     0.000000000  0.000000000  0.095238095

  length of vectors
    10.100000000 10.300000000 10.500000000     0.099009901  0.097087379  0.095238095


 FORCES acting on ions
    electron-ion (+dipol)            ewald-force                    non-local-force                 convergence-correction
 -----------------------------------------------------------------------------------------------
   -.214E-14 0.132E-13 0.375E+02   0.806E-17 -.101E-17 -.399E+02   0.000E+00 0.000E+00 0.441E+01   -.321E-12 0.688E-12 0.405E+00
   0.453E-14 0.843E-15 -.373E+02   0.234E-16 0.154E-16 0.399E+02   0.000E+00 0.000E+00 -.562E+01   -.356E-11 -.299E-11 0.588E+00
 -----------------------------------------------------------------------------------------------
   0.239E-14 0.141E-13 0.216E+00   0.315E-16 0.144E-16 0.000E+00   0.000E+00 0.000E+00 -.120E+01   -.388E-11 -.230E-11 0.993E+00
 
 
 POSITION                                       TOTAL-FORCE (eV/Angst)
 -----------------------------------------------------------------------------------
      0.00000      0.00000      0.00000         0.000000      0.000000      2.435718
      0.00000      0.00000      2.80000         0.000000      0.000000     -2.435718
 -----------------------------------------------------------------------------------
    total drift:                               -0.000000     -0.000000      0.005224


--------------------------------------------------------------------------------------------------------



  FREE ENERGIE OF THE ION-ELECTRON SYSTEM (eV)
  ---------------------------------------------------
  free  energy   TOTEN  =        -2.33096018 eV

  energy  without entropy=       -2.14361589  energy(sigma->0) =       -2.23728803
 


--------------------------------------------------------------------------------------------------------


    POTLOK:  cpu time    1.11: real time    1.12


--------------------------------------------------------------------------------------------------------


     LOOP+:  cpu time   45.75: real time   48.14
    4ORBIT:  cpu time    0.00: real time    0.00

 total amount of memory used by VASP on root node   140193. kBytes
========================================================================

   base      :      30000. kBytes
   nonl-proj :       3171. kBytes
   fftplans  :      37440. kBytes
   grid      :      66720. kBytes
   one-center:          6. kBytes
   wavefun   :       2856. kBytes
 
  
  
 General timing and accounting informations for this job:
 ========================================================
  
                  Total CPU time used (sec):       48.128
                            User time (sec):       47.736
                          System time (sec):        0.392
                         Elapsed time (sec):       50.525
  
                   Maximum memory used (kb):      234640.
                   Average memory used (kb):           0.
  
                          Minor page faults:        84925
                          Major page faults:            0
                 Voluntary context switches:            2
