 vasp.5.3.3 18Dez12 (build Sep  7 2015 22:32:56) complex                        
  
 executed on             LinuxIFC date 2002.02.05  00:59:56
 running on    1 total cores
 distrk:  each k-point on    1 cores,    1 groups
 distr:  one band on NCORES_PER_BAND=   1 cores,    1 groups


--------------------------------------------------------------------------------------------------------


 INCAR:
 POTCAR:    PAW_PBE C 08Apr2002                   
 POTCAR:    PAW_PBE O 08Apr2002                   
 POTCAR:    PAW_PBE C 08Apr2002                   
   VRHFIN =C: s2p2                                                              
   LEXCH  = PE                                                                  
   EATOM  =   147.1560 eV,   10.8157 Ry                                         
                                                                                
   TITEL  = PAW_PBE C 08Apr2002                                                 
   LULTRA =        F    use ultrasoft PP ?                                      
   IUNSCR =        1    unscreen: 0-lin 1-nonlin 2-no                           
   RPACOR =    1.200    partial core radius                                     
   POMASS =   12.011; ZVAL   =    4.000    mass and valenz                      
   RCORE  =    1.500    outmost cutoff radius                                   
   RWIGS  =    1.630; RWIGS  =    0.863    wigner-seitz radius (au A)           
   ENMAX  =  400.000; ENMIN  =  300.000 eV                                      
   ICORE  =        2    local potential                                         
   LCOR   =        T    correct aug charges                                     
   LPAW   =        T    paw PP                                                  
   EAUG   =  644.873                                                            
   DEXC   =    0.000                                                            
   RMAX   =    1.529    core radius for proj-oper                               
   RAUG   =    1.300    factor for augmentation sphere                          
   RDEP   =    1.501    radius for radial grids                                 
   RDEPT  =    1.300    core radius for aug-charge                              
                                                                                
   Atomic configuration                                                         
    4 entries                                                                   
     n  l   j            E        occ.                                          
     1  0  0.50      -273.3789   2.0000                                         
     2  0  0.50       -13.7508   2.0000                                         
     2  1  0.50        -5.2854   2.0000                                         
     3  2  1.50        -5.4423   0.0000                                         
   Description                                                                  
     l       E           TYP  RCUT    TYP  RCUT                                 
     0    -13.7508458     23  1.200                                             
     0     -8.2022199     23  1.200                                             
     1     -5.2854383     23  1.500                                             
     1     34.0145650     23  1.500                                             
     2     -5.4423304      7  1.500                                             
  local pseudopotential read in
  partial core-charges read in
  partial kinetic energy density read in
  atomic valenz-charges read in
  non local Contribution for L=           0  read in
    real space projection operators read in
  non local Contribution for L=           0  read in
    real space projection operators read in
  non local Contribution for L=           1  read in
    real space projection operators read in
  non local Contribution for L=           1  read in
    real space projection operators read in
    PAW grid and wavefunctions read in
 
   number of l-projection  operators is LMAX  =           4
   number of lm-projection operators is LMMAX =           8
 
 POTCAR:    PAW_PBE O 08Apr2002                   
   VRHFIN =O: s2p4                                                              
   LEXCH  = PE                                                                  
   EATOM  =   432.3788 eV,   31.7789 Ry                                         
                                                                                
   TITEL  = PAW_PBE O 08Apr2002                                                 
   LULTRA =        F    use ultrasoft PP ?                                      
   IUNSCR =        1    unscreen: 0-lin 1-nonlin 2-no                           
   RPACOR =    1.200    partial core radius                                     
   POMASS =   16.000; ZVAL   =    6.000    mass and valenz                      
   RCORE  =    1.520    outmost cutoff radius                                   
   RWIGS  =    1.550; RWIGS  =    0.820    wigner-seitz radius (au A)           
   ENMAX  =  400.000; ENMIN  =  300.000 eV                                      
   ICORE  =        2    local potential                                         
   LCOR   =        T    correct aug charges                                     
   LPAW   =        T    paw PP                                                  
   EAUG   =  605.392                                                            
   DEXC   =    0.000                                                            
   RMAX   =    1.553    core radius for proj-oper                               
   RAUG   =    1.300    factor for augmentation sphere                          
   RDEP   =    1.550    radius for radial grids                                 
   RDEPT  =    1.329    core radius for aug-charge                              
                                                                                
   Atomic configuration                                                         
    4 entries                                                                   
     n  l   j            E        occ.                                          
     1  0  0.50      -514.6923   2.0000                                         
     2  0  0.50       -23.9615   2.0000                                         
     2  1  0.50        -9.0305   4.0000                                         
     3  2  1.50        -9.5241   0.0000                                         
   Description                                                                  
     l       E           TYP  RCUT    TYP  RCUT                                 
     0    -23.9615318     23  1.200                                             
     0     -9.5240782     23  1.200                                             
     1     -9.0304911     23  1.520                                             
     1      8.1634956     23  1.520                                             
     2     -9.5240782      7  1.500                                             
  local pseudopotential read in
  partial core-charges read in
  partial kinetic energy density read in
  kinetic energy density of atom read in
  atomic valenz-charges read in
  non local Contribution for L=           0  read in
    real space projection operators read in
  non local Contribution for L=           0  read in
    real space projection operators read in
  non local Contribution for L=           1  read in
    real space projection operators read in
  non local Contribution for L=           1  read in
    real space projection operators read in
    PAW grid and wavefunctions read in
 
   number of l-projection  operators is LMAX  =           4
   number of lm-projection operators is LMMAX =           8
 
  PAW_PBE C 08Apr2002                   :
 energy of atom  1       EATOM= -147.1560
 kinetic energy error for atom=    0.0288 (will be added to EATOM!!)
  PAW_PBE O 08Apr2002                   :
 energy of atom  2       EATOM= -432.3788
 kinetic energy error for atom=    0.1156 (will be added to EATOM!!)
 
 
 POSCAR: CO molecule in a box                    
  positions in cartesian coordinates
  No initial velocities read in
 exchange correlation table for  LEXCH =        8
   RHO(1)=    0.500       N(1)  =     2000
   RHO(2)=  100.500       N(2)  =     4000
 


--------------------------------------------------------------------------------------------------------


 ion  position               nearest neighbor table
   1  0.000  0.000  0.000-
   2  0.000  0.000  0.210-
 
  LATTYP: Found a simple orthorhombic cell.
 ALAT       =    10.1000000000
 B/A-ratio  =     1.0198019802
 C/A-ratio  =     1.0396039604
  
  Lattice vectors:
  
 A1 = (  10.1000000000,   0.0000000000,   0.0000000000)
 A2 = (   0.0000000000,  10.3000000000,   0.0000000000)
 A3 = (   0.0000000000,   0.0000000000,  10.5000000000)


Analysis of symmetry for initial positions (statically):
=====================================================================
 Subroutine PRICEL returns:
 Original cell was already a primitive cell.
 

 Routine SETGRP: Setting up the symmetry group for a 
 simple orthorhombic supercell.


 Subroutine GETGRP returns: Found  4 space group operations
 (whereof  4 operations were pure point group operations)
 out of a pool of  8 trial point group operations.


The static configuration has the point symmetry C_2v.


Analysis of symmetry for dynamics (positions and initial velocities):
=====================================================================
 Subroutine PRICEL returns:
 Original cell was already a primitive cell.
 

 Routine SETGRP: Setting up the symmetry group for a 
 simple orthorhombic supercell.


 Subroutine GETGRP returns: Found  4 space group operations
 (whereof  4 operations were pure point group operations)
 out of a pool of  8 trial point group operations.


The dynamic configuration has the point symmetry C_2v.


Analysis of constrained symmetry for selective dynamics:
=====================================================================
 Subroutine PRICEL returns:
 Original cell was already a primitive cell.
 

 Routine SETGRP: Setting up the symmetry group for a 
 simple orthorhombic supercell.


 Subroutine GETGRP returns: Found  4 space group operations
 (whereof  4 operations were pure point group operations)
 out of a pool of  8 trial point group operations.


The constrained configuration has the point symmetry C_2v.


 irot  :   1
 --------------------------------------------------------------------
 isymop:   1   0   0
           0   1   0
           0   0   1

 gtrans:     0.0000000     0.0000000     0.0000000

 ptrans:     0.0000000     0.0000000     0.0000000
 rotmap:
 (   1->   1)  (   2->   2) 


 irot  :   2
 --------------------------------------------------------------------
 isymop:  -1   0   0
           0  -1   0
           0   0   1

 gtrans:     0.0000000     0.0000000     0.0000000

 ptrans:     0.0000000     0.0000000     0.0000000
 rotmap:
 (   1->   1)  (   2->   2) 


 irot  :   3
 --------------------------------------------------------------------
 isymop:   1   0   0
           0  -1   0
           0   0   1

 gtrans:     0.0000000     0.0000000     0.0000000

 ptrans:     0.0000000     0.0000000     0.0000000
 rotmap:
 (   1->   1)  (   2->   2) 


 irot  :   4
 --------------------------------------------------------------------
 isymop:  -1   0   0
           0   1   0
           0   0   1

 gtrans:     0.0000000     0.0000000     0.0000000

 ptrans:     0.0000000     0.0000000     0.0000000
 rotmap:
 (   1->   1)  (   2->   2) 
 
 
 KPOINTS: Gamma-point only                        

Automatic generation of k-mesh.
Space group operators:
 irot       det(A)        alpha          n_x          n_y          n_z        tau_x        tau_y        tau_z
    1     1.000000     0.000000     1.000000     0.000000     0.000000     0.000000     0.000000     0.000000
    2     1.000000   180.000000     0.000000     0.000000     1.000000     0.000000     0.000000     0.000000
    3    -1.000000   180.000000     0.000000     1.000000     0.000000     0.000000     0.000000     0.000000
    4    -1.000000   180.000000     1.000000     0.000000     0.000000     0.000000     0.000000     0.000000
 
 Subroutine IBZKPT returns following result:
 ===========================================
 
 Found      1 irreducible k-points:
 
 Following reciprocal coordinates:
            Coordinates               Weight
  0.000000  0.000000  0.000000      1.000000
 
 Following cartesian coordinates:
            Coordinates               Weight
  0.000000  0.000000  0.000000      1.000000
 


--------------------------------------------------------------------------------------------------------




 Dimension of arrays:
   k-points           NKPTS =      1   k-points in BZ     NKDIM =      1   number of bands    NBANDS=      9
   number of dos      NEDOS =    301   number of ions     NIONS =      2
   non local maximal  LDIM  =      4   non local SUM 2l+1 LMDIM =      8
   total plane-waves  NPLWV = 135000
   max r-space proj   IRMAX =      1   max aug-charges    IRDMAX=   1803
   dimension x,y,z NGX =    50 NGY =   50 NGZ =   54
   dimension x,y,z NGXF=   100 NGYF=  100 NGZF=  108
   support grid    NGXF=   100 NGYF=  100 NGZF=  108
   ions per type =               1   1
 NGX,Y,Z   is equivalent  to a cutoff of   8.23,  8.07,  8.55 a.u.
 NGXF,Y,Z  is equivalent  to a cutoff of  16.46, 16.14, 17.10 a.u.


 I would recommend the setting:
   dimension x,y,z NGX =    49 NGY =   50 NGZ =   51
 SYSTEM =  Hello World                             
 POSCAR =  CO molecule in a box                    

 Startparameter for this run:
   NWRITE =      2    write-flag & timer
   PREC   = normal    normal or accurate (medium, high low for compatibility)
   ISTART =      0    job   : 0-new  1-cont  2-samecut
   ICHARG =      2    charge: 1-file 2-atom 10-const
   ISPIN  =      1    spin polarized calculation?
   LNONCOLLINEAR =      F non collinear calculations
   LSORBIT =      F    spin-orbit coupling
   INIWAV =      1    electr: 0-lowe 1-rand  2-diag
   LASPH  =      F    aspherical Exc in radial PAW
   METAGGA=      F    non-selfconsistent MetaGGA calc.

 Electronic Relaxation 1
   ENCUT  =  400.0 eV  29.40 Ry    5.42 a.u.  16.47 16.80 17.12*2*pi/ulx,y,z
   ENINI  =  400.0     initial cutoff
   ENAUG  =  644.9 eV  augmentation charge cutoff
   NELM   =     60;   NELMIN=  2; NELMDL=  0     # of ELM steps 
   EDIFF  = 0.1E-03   stopping-criterion for ELM
   LREAL  =      F    real-space projection
   NLSPLINE    = F    spline interpolate recip. space projectors
   LCOMPAT=      F    compatible to vasp.4.4
   GGA_COMPAT  = T    GGA compatible to vasp.4.4-vasp.4.6
   LMAXPAW     = -100 max onsite density
   LMAXMIX     =    2 max onsite mixed and CHGCAR
   VOSKOWN=      0    Vosko Wilk Nusair interpolation
   ROPT   =    0.00000   0.00000
 Ionic relaxation
   EDIFFG = -.1E-01   stopping-criterion for IOM
   NSW    =      0    number of steps for IOM
   NBLOCK =      1;   KBLOCK =      1    inner block; outer block 
   IBRION =     -1    ionic relax: 0-MD 1-quasi-New 2-CG
   NFREE  =      0    steps in history (QN), initial steepest desc. (CG)
   ISIF   =      2    stress and relaxation
   IWAVPR =     10    prediction:  0-non 1-charg 2-wave 3-comb
   ISYM   =      2    0-nonsym 1-usesym 2-fastsym
   LCORR  =      T    Harris-Foulkes like correction to forces

   POTIM  = 0.5000    time-step for ionic-motion
   TEIN   =    0.0    initial temperature
   TEBEG  =    0.0;   TEEND  =   0.0 temperature during run
   SMASS  =  -3.00    Nose mass-parameter (am)
   estimated Nose-frequenzy (Omega)   =  0.10E-29 period in steps =****** mass=  -0.233E-26a.u.
   SCALEE = 1.0000    scale energy and forces
   NPACO  =    256;   APACO  = 16.0  distance and # of slots for P.C.
   PSTRESS=    0.0 pullay stress

  Mass of Ions in am
   POMASS =  12.01 16.00
  Ionic Valenz
   ZVAL   =   4.00  6.00
  Atomic Wigner-Seitz radii
   RWIGS  =  -1.00 -1.00
  virtual crystal weights 
   VCA    =   1.00  1.00
   NELECT =      10.0000    total number of electrons
   NUPDOWN=      -1.0000    fix difference up-down

 DOS related values:
   EMIN   =  10.00;   EMAX   =-10.00  energy-range for DOS
   EFERMI =   0.00
   ISMEAR =     0;   SIGMA  =   0.20  broadening in eV -4-tet -1-fermi 0-gaus

 Electronic relaxation 2 (details)
   IALGO  =     68    algorithm
   LDIAG  =      T    sub-space diagonalisation (order eigenvalues)
   LSUBROT=      T    optimize rotation matrix (better conditioning)
   TURBO    =      0    0=normal 1=particle mesh
   IRESTART =      0    0=no restart 2=restart with 2 vectors
   NREBOOT  =      0    no. of reboots
   NMIN     =      0    reboot dimension
   EREF     =   0.00    reference energy to select bands
   IMIX   =      4    mixing-type and parameters
     AMIX     =   0.40;   BMIX     =  1.00
     AMIX_MAG =   1.60;   BMIX_MAG =  1.00
     AMIN     =   0.10
     WC   =   100.;   INIMIX=   1;  MIXPRE=   1;  MAXMIX= -45

 Intra band minimization:
   WEIMIN = 0.0000     energy-eigenvalue tresh-hold
   EBREAK =  0.28E-05  absolut break condition
   DEPER  =   0.30     relativ break condition  

   TIME   =   0.40     timestep for ELM

  volume/ion in A,a.u.               =     546.16      3685.65
  Fermi-wavevector in a.u.,A,eV,Ry     =   0.342472  0.647179  1.595791  0.117287
  Thomas-Fermi vector in A             =   1.247862
 
 Write flags
   LWAVE  =      F    write WAVECAR
   LCHARG =      F    write CHGCAR
   LVTOT  =      F    write LOCPOT, total local potential
   LVHAR  =      F    write LOCPOT, Hartree potential only
   LELF   =      F    write electronic localiz. function (ELF)
   LORBIT =      0    0 simple, 1 ext, 2 COOP (PROOUT)


 Dipole corrections
   LMONO  =      F    monopole corrections only (constant potential shift)
   LDIPOL =      F    correct potential (dipole corrections)
   IDIPOL =      0    1-x, 2-y, 3-z, 4-all directions 
   EPSILON=  1.0000000 bulk dielectric constant

 Exchange correlation treatment:
   GGA     =    --    GGA type
   LEXCH   =     8    internal setting for exchange type
   VOSKOWN=      0    Vosko Wilk Nusair interpolation
   LHFCALC =     F    Hartree Fock is set to
   LHFONE  =     F    Hartree Fock one center treatment
   AEXX    =    0.0000 exact exchange contribution

 Linear response parameters
   LEPSILON=     F    determine dielectric tensor
   LRPA    =     F    only Hartree local field effects (RPA)
   LNABLA  =     F    use nabla operator in PAW spheres
   LVEL    =     F    velocity operator in full k-point grid
   LINTERFAST=   F  fast interpolation
   KINTER  =     0    interpolate to denser k-point grid
   CSHIFT  =0.1000    complex shift for real part using Kramers Kronig
   OMEGAMAX=  -1.0    maximum frequency
   DEG_THRESHOLD= 0.2000000E-02 threshold for treating states as degnerate
   RTIME   =    0.100 relaxation time in fs

 Orbital magnetization related:
   ORBITALMAG=     F  switch on orbital magnetization
   LCHIMAG   =     F  perturbation theory with respect to B field
   DQ        =  0.001000  dq finite difference perturbation B field



--------------------------------------------------------------------------------------------------------


 Static calculation
 charge density and potential will be updated during run
 non-spin polarized calculation
 RMM-DIIS sequential band-by-band and
  variant of blocked Davidson during initial phase
 perform sub-space diagonalisation
    before iterative eigenvector-optimisation
 modified Broyden-mixing scheme, WC =      100.0
 initial mixing is a Kerker type mixing with AMIX =  0.4000 and BMIX =      1.0000
 Hartree-type preconditioning will be used
 using additional bands            4
 reciprocal scheme for non local part
 use partial core corrections
 calculate Harris-corrections to forces 
   (improved forces if not selfconsistent)
 use gradient corrections 
 use of overlap-Matrix (Vanderbilt PP)
 Gauss-broadening in eV      SIGMA  =   0.20


--------------------------------------------------------------------------------------------------------


  energy-cutoff  :      400.00
  volume of cell :     1092.32
      direct lattice vectors                 reciprocal lattice vectors
    10.100000000  0.000000000  0.000000000     0.099009901  0.000000000  0.000000000
     0.000000000 10.300000000  0.000000000     0.000000000  0.097087379  0.000000000
     0.000000000  0.000000000 10.500000000     0.000000000  0.000000000  0.095238095

  length of vectors
    10.100000000 10.300000000 10.500000000     0.099009901  0.097087379  0.095238095


 
 k-points in units of 2pi/SCALE and weight: Gamma-point only                        
   0.00000000  0.00000000  0.00000000       1.000
 
 k-points in reciprocal lattice and weights: Gamma-point only                        
   0.00000000  0.00000000  0.00000000       1.000
 
 position of ions in fractional coordinates (direct lattice) 
   0.00000000  0.00000000  0.00000000
   0.00000000  0.00000000  0.20952381
 
 position of ions in cartesian coordinates  (Angst):
   0.00000000  0.00000000  0.00000000
   0.00000000  0.00000000  2.20000000
 


--------------------------------------------------------------------------------------------------------


 k-point  1 :   0.0000 0.0000 0.0000  plane waves:   19819

 maximum and minimum number of plane-waves per node :     19819    19819

 maximum number of plane-waves:     19819
 maximum index in each direction: 
   IXMAX=   16   IYMAX=   16   IZMAX=   17
   IXMIN=  -16   IYMIN=  -16   IZMIN=  -17

 WARNING: aliasing errors must be expected set NGX to  66 to avoid them
 WARNING: aliasing errors must be expected set NGY to  66 to avoid them
 WARNING: aliasing errors must be expected set NGZ to  70 to avoid them
 aliasing errors are usually negligible using standard VASP settings
 and one can safely disregard these warnings

 serial   3D FFT for wavefunctions
 parallel 3D FFT for charge:
    minimum data exchange during FFTs selected (reduces bandwidth)


 total amount of memory used by VASP on root node   140193. kBytes
========================================================================

   base      :      30000. kBytes
   nonl-proj :       3171. kBytes
   fftplans  :      37440. kBytes
   grid      :      66720. kBytes
   one-center:          6. kBytes
   wavefun   :       2856. kBytes
 
 Broyden mixing: mesh for mixing (old mesh)
   NGX = 33   NGY = 33   NGZ = 35
  (NGX  =100   NGY  =100   NGZ  =108)
  gives a total of  38115 points

 initial charge density was supplied:
 charge density of overlapping atoms calculated
 number of electron      10.0000000 magnetization 
 keeping initial charge density in first step


--------------------------------------------------------------------------------------------------------


 Maximum index for augmentation-charges         1533 (set IRDMAX)


--------------------------------------------------------------------------------------------------------


 First call to EWALD:  gamma=   0.172
 Maximum number of real-space cells 3x 3x 3
 Maximum number of reciprocal cells 3x 3x 3

 FEWALD executed in parallel
    FEWALD:  cpu time    0.00: real time    0.00


----------------------------------------- Iteration    1(   1)  ---------------------------------------


    POTLOK:  cpu time    1.29: real time    1.29
    SETDIJ:  cpu time    0.01: real time    0.01
     EDDAV:  cpu time    0.78: real time    0.80
       DOS:  cpu time    0.00: real time    0.00
    --------------------------------------------
      LOOP:  cpu time    2.08: real time    2.10

 eigenvalue-minimisations  :    26
 total energy-change (2. order) : 0.5252847E+02  (-0.1934774E+03)
 number of electron      10.0000000 magnetization 
 augmentation part       10.0000000 magnetization 

 Free energy of the ion-electron system (eV)
  ---------------------------------------------------
  alpha Z        PSCENC =         0.40002888
  Ewald energy   TEWEN  =       -38.05328140
  -1/2 Hartree   DENC   =      -454.73626982
  -exchange  EXHF       =         0.00000000
  -V(xc)+E(xc)   XCENC  =        36.94621993
  PAW double counting   =       455.07152327     -457.43959975
  entropy T*S    EENTRO =        -0.01163590
  eigenvalues    EBANDS =       -69.03893754
  atomic energy  EATOM  =       579.39041991
  ---------------------------------------------------
  free energy    TOTEN  =        52.52846757 eV

  energy without entropy =       52.54010348  energy(sigma->0) =       52.53428553


--------------------------------------------------------------------------------------------------------




----------------------------------------- Iteration    1(   2)  ---------------------------------------


     EDDAV:  cpu time    1.00: real time    1.00
       DOS:  cpu time    0.00: real time    0.00
    --------------------------------------------
      LOOP:  cpu time    1.00: real time    1.00

 eigenvalue-minimisations  :    35
 total energy-change (2. order) :-0.5127353E+02  (-0.5116159E+02)
 number of electron      10.0000000 magnetization 
 augmentation part       10.0000000 magnetization 

 Free energy of the ion-electron system (eV)
  ---------------------------------------------------
  alpha Z        PSCENC =         0.40002888
  Ewald energy   TEWEN  =       -38.05328140
  -1/2 Hartree   DENC   =      -454.73626982
  -exchange  EXHF       =         0.00000000
  -V(xc)+E(xc)   XCENC  =        36.94621993
  PAW double counting   =       455.07152327     -457.43959975
  entropy T*S    EENTRO =        -0.00000000
  eigenvalues    EBANDS =      -120.32410256
  atomic energy  EATOM  =       579.39041991
  ---------------------------------------------------
  free energy    TOTEN  =         1.25493845 eV

  energy without entropy =        1.25493845  energy(sigma->0) =        1.25493845


--------------------------------------------------------------------------------------------------------




----------------------------------------- Iteration    1(   3)  ---------------------------------------


     EDDAV:  cpu time    0.80: real time    0.80
       DOS:  cpu time    0.00: real time    0.00
    --------------------------------------------
      LOOP:  cpu time    0.80: real time    0.80

 eigenvalue-minimisations  :    27
 total energy-change (2. order) :-0.9488879E+01  (-0.9486482E+01)
 number of electron      10.0000000 magnetization 
 augmentation part       10.0000000 magnetization 

 Free energy of the ion-electron system (eV)
  ---------------------------------------------------
  alpha Z        PSCENC =         0.40002888
  Ewald energy   TEWEN  =       -38.05328140
  -1/2 Hartree   DENC   =      -454.73626982
  -exchange  EXHF       =         0.00000000
  -V(xc)+E(xc)   XCENC  =        36.94621993
  PAW double counting   =       455.07152327     -457.43959975
  entropy T*S    EENTRO =        -0.00000000
  eigenvalues    EBANDS =      -129.81298189
  atomic energy  EATOM  =       579.39041991
  ---------------------------------------------------
  free energy    TOTEN  =        -8.23394087 eV

  energy without entropy =       -8.23394087  energy(sigma->0) =       -8.23394087


--------------------------------------------------------------------------------------------------------




----------------------------------------- Iteration    1(   4)  ---------------------------------------


     EDDAV:  cpu time    0.78: real time    0.78
       DOS:  cpu time    0.00: real time    0.00
    --------------------------------------------
      LOOP:  cpu time    0.78: real time    0.78

 eigenvalue-minimisations  :    26
 total energy-change (2. order) :-0.1222064E+00  (-0.1222050E+00)
 number of electron      10.0000000 magnetization 
 augmentation part       10.0000000 magnetization 

 Free energy of the ion-electron system (eV)
  ---------------------------------------------------
  alpha Z        PSCENC =         0.40002888
  Ewald energy   TEWEN  =       -38.05328140
  -1/2 Hartree   DENC   =      -454.73626982
  -exchange  EXHF       =         0.00000000
  -V(xc)+E(xc)   XCENC  =        36.94621993
  PAW double counting   =       455.07152327     -457.43959975
  entropy T*S    EENTRO =        -0.00000000
  eigenvalues    EBANDS =      -129.93518829
  atomic energy  EATOM  =       579.39041991
  ---------------------------------------------------
  free energy    TOTEN  =        -8.35614728 eV

  energy without entropy =       -8.35614728  energy(sigma->0) =       -8.35614728


--------------------------------------------------------------------------------------------------------




----------------------------------------- Iteration    1(   5)  ---------------------------------------


     EDDAV:  cpu time    0.69: real time    0.69
       DOS:  cpu time    0.00: real time    0.00
    CHARGE:  cpu time    0.10: real time    0.10
    MIXING:  cpu time    0.04: real time    0.03
    --------------------------------------------
      LOOP:  cpu time    0.83: real time    0.83

 eigenvalue-minimisations  :    26
 total energy-change (2. order) :-0.3312107E-03  (-0.3312108E-03)
 number of electron      10.0000019 magnetization 
 augmentation part        0.7310825 magnetization 

 Broyden mixing:
  rms(total) = 0.12044E+01    rms(broyden)= 0.12037E+01
  rms(prec ) = 0.19084E+01
  weight for this iteration     100.00

 Free energy of the ion-electron system (eV)
  ---------------------------------------------------
  alpha Z        PSCENC =         0.40002888
  Ewald energy   TEWEN  =       -38.05328140
  -1/2 Hartree   DENC   =      -454.73626982
  -exchange  EXHF       =         0.00000000
  -V(xc)+E(xc)   XCENC  =        36.94621993
  PAW double counting   =       455.07152327     -457.43959975
  entropy T*S    EENTRO =        -0.00000000
  eigenvalues    EBANDS =      -129.93551950
  atomic energy  EATOM  =       579.39041991
  ---------------------------------------------------
  free energy    TOTEN  =        -8.35647849 eV

  energy without entropy =       -8.35647849  energy(sigma->0) =       -8.35647849


--------------------------------------------------------------------------------------------------------




----------------------------------------- Iteration    1(   6)  ---------------------------------------


    POTLOK:  cpu time    0.93: real time    0.93
    SETDIJ:  cpu time    0.00: real time    0.00
    EDDIAG:  cpu time    0.10: real time    0.10
  RMM-DIIS:  cpu time    0.38: real time    0.38
    ORTHCH:  cpu time    0.00: real time    0.01
       DOS:  cpu time    0.00: real time    0.00
    CHARGE:  cpu time    0.10: real time    0.10
    MIXING:  cpu time    0.04: real time    0.04
    --------------------------------------------
      LOOP:  cpu time    1.55: real time    1.55

 eigenvalue-minimisations  :    20
 total energy-change (2. order) :-0.1727530E+02  (-0.1348815E+01)
 number of electron       9.9999979 magnetization 
 augmentation part       -0.0327166 magnetization 

 Broyden mixing:
  rms(total) = 0.34500E+01    rms(broyden)= 0.34482E+01
  rms(prec ) = 0.53014E+01
  weight for this iteration     100.00

 eigenvalues of (default mixing * dielectric matrix)
  average eigenvalue GAMMA=   0.2566
  0.2566

 Free energy of the ion-electron system (eV)
  ---------------------------------------------------
  alpha Z        PSCENC =         0.40002888
  Ewald energy   TEWEN  =       -38.05328140
  -1/2 Hartree   DENC   =      -482.14827497
  -exchange  EXHF       =         0.00000000
  -V(xc)+E(xc)   XCENC  =        38.25208737
  PAW double counting   =       510.40558887     -513.06973375
  entropy T*S    EENTRO =        -0.00000000
  eigenvalues    EBANDS =      -120.80860940
  atomic energy  EATOM  =       579.39041991
  ---------------------------------------------------
  free energy    TOTEN  =       -25.63177449 eV

  energy without entropy =      -25.63177449  energy(sigma->0) =      -25.63177449


--------------------------------------------------------------------------------------------------------




----------------------------------------- Iteration    1(   7)  ---------------------------------------


    POTLOK:  cpu time    0.97: real time    0.97
    SETDIJ:  cpu time    0.00: real time    0.00
    EDDIAG:  cpu time    0.10: real time    0.10
  RMM-DIIS:  cpu time    0.39: real time    0.39
    ORTHCH:  cpu time    0.01: real time    0.01
       DOS:  cpu time    0.00: real time    0.00
    CHARGE:  cpu time    0.13: real time    0.13
    MIXING:  cpu time    0.04: real time    0.04
    --------------------------------------------
      LOOP:  cpu time    1.65: real time    1.65

 eigenvalue-minimisations  :    19
 total energy-change (2. order) : 0.2053424E+02  (-0.7493326E+00)
 number of electron      10.0000021 magnetization 
 augmentation part        0.5266634 magnetization 

 Broyden mixing:
  rms(total) = 0.39552E+00    rms(broyden)= 0.38660E+00
  rms(prec ) = 0.64491E+00
  weight for this iteration     100.00

 eigenvalues of (default mixing * dielectric matrix)
  average eigenvalue GAMMA=   0.1611
  0.2548  0.0675

 Free energy of the ion-electron system (eV)
  ---------------------------------------------------
  alpha Z        PSCENC =         0.40002888
  Ewald energy   TEWEN  =       -38.05328140
  -1/2 Hartree   DENC   =      -462.94342339
  -exchange  EXHF       =         0.00000000
  -V(xc)+E(xc)   XCENC  =        37.40255541
  PAW double counting   =       476.77497518     -479.23494166
  entropy T*S    EENTRO =        -0.00000002
  eigenvalues    EBANDS =      -118.83386534
  atomic energy  EATOM  =       579.39041991
  ---------------------------------------------------
  free energy    TOTEN  =        -5.09753242 eV

  energy without entropy =       -5.09753240  energy(sigma->0) =       -5.09753241


--------------------------------------------------------------------------------------------------------




----------------------------------------- Iteration    1(   8)  ---------------------------------------


    POTLOK:  cpu time    1.10: real time    1.10
    SETDIJ:  cpu time    0.00: real time    0.01
    EDDIAG:  cpu time    0.12: real time    0.13
  RMM-DIIS:  cpu time    0.59: real time    0.59
    ORTHCH:  cpu time    0.01: real time    0.01
       DOS:  cpu time    0.00: real time    0.00
    CHARGE:  cpu time    0.13: real time    0.13
    MIXING:  cpu time    0.05: real time    0.05
    --------------------------------------------
      LOOP:  cpu time    2.00: real time    2.00

 eigenvalue-minimisations  :    22
 total energy-change (2. order) :-0.6145968E-01  (-0.1638620E-01)
 number of electron      10.0000022 magnetization 
 augmentation part        0.5502886 magnetization 

 Broyden mixing:
  rms(total) = 0.45361E+00    rms(broyden)= 0.45319E+00
  rms(prec ) = 0.76013E+00
  weight for this iteration     100.00

 eigenvalues of (default mixing * dielectric matrix)
  average eigenvalue GAMMA=   0.2052
  0.2928  0.1613  0.1613

 Free energy of the ion-electron system (eV)
  ---------------------------------------------------
  alpha Z        PSCENC =         0.40002888
  Ewald energy   TEWEN  =       -38.05328140
  -1/2 Hartree   DENC   =      -462.92046535
  -exchange  EXHF       =         0.00000000
  -V(xc)+E(xc)   XCENC  =        37.35824000
  PAW double counting   =       476.74824441     -479.20632667
  entropy T*S    EENTRO =        -0.00000002
  eigenvalues    EBANDS =      -118.87585186
  atomic energy  EATOM  =       579.39041991
  ---------------------------------------------------
  free energy    TOTEN  =        -5.15899210 eV

  energy without entropy =       -5.15899208  energy(sigma->0) =       -5.15899209


--------------------------------------------------------------------------------------------------------




----------------------------------------- Iteration    1(   9)  ---------------------------------------


    POTLOK:  cpu time    1.01: real time    1.01
    SETDIJ:  cpu time    0.00: real time    0.00
    EDDIAG:  cpu time    0.10: real time    0.10
  RMM-DIIS:  cpu time    0.38: real time    0.38
    ORTHCH:  cpu time    0.01: real time    0.01
       DOS:  cpu time    0.00: real time    0.00
    CHARGE:  cpu time    0.10: real time    0.10
    MIXING:  cpu time    0.04: real time    0.04
    --------------------------------------------
      LOOP:  cpu time    1.65: real time    1.66

 eigenvalue-minimisations  :    19
 total energy-change (2. order) :-0.3585589E+00  (-0.2086791E-01)
 number of electron       9.9999993 magnetization 
 augmentation part        0.2435379 magnetization 

 Broyden mixing:
  rms(total) = 0.12565E+01    rms(broyden)= 0.12548E+01
  rms(prec ) = 0.18642E+01
  weight for this iteration     100.00

 eigenvalues of (default mixing * dielectric matrix)
  average eigenvalue GAMMA=   0.4019
  0.7898  0.4929  0.1624  0.1624

 Free energy of the ion-electron system (eV)
  ---------------------------------------------------
  alpha Z        PSCENC =         0.40002888
  Ewald energy   TEWEN  =       -38.05328140
  -1/2 Hartree   DENC   =      -467.64243665
  -exchange  EXHF       =         0.00000000
  -V(xc)+E(xc)   XCENC  =        37.59456308
  PAW double counting   =       487.07661621     -489.56233442
  entropy T*S    EENTRO =        -0.00037237
  eigenvalues    EBANDS =      -114.72075422
  atomic energy  EATOM  =       579.39041991
  ---------------------------------------------------
  free energy    TOTEN  =        -5.51755098 eV

  energy without entropy =       -5.51717861  energy(sigma->0) =       -5.51736479


--------------------------------------------------------------------------------------------------------




----------------------------------------- Iteration    1(  10)  ---------------------------------------


    POTLOK:  cpu time    1.02: real time    1.02
    SETDIJ:  cpu time    0.00: real time    0.01
    EDDIAG:  cpu time    0.11: real time    0.11
  RMM-DIIS:  cpu time    0.47: real time    0.47
    ORTHCH:  cpu time    0.01: real time    0.01
       DOS:  cpu time    0.00: real time    0.00
    CHARGE:  cpu time    0.12: real time    0.12
    MIXING:  cpu time    0.05: real time    0.05
    --------------------------------------------
      LOOP:  cpu time    1.78: real time    1.78

 eigenvalue-minimisations  :    23
 total energy-change (2. order) :-0.1302342E+00  (-0.1718426E-02)
 number of electron       9.9999990 magnetization 
 augmentation part        0.2174190 magnetization 

 Broyden mixing:
  rms(total) = 0.13988E+01    rms(broyden)= 0.13987E+01
  rms(prec ) = 0.20987E+01
  weight for this iteration     100.00

 eigenvalues of (default mixing * dielectric matrix)
  average eigenvalue GAMMA=   0.8889
  2.7124  0.7004  0.7004  0.1656  0.1656

 Free energy of the ion-electron system (eV)
  ---------------------------------------------------
  alpha Z        PSCENC =         0.40002888
  Ewald energy   TEWEN  =       -38.05328140
  -1/2 Hartree   DENC   =      -467.70990188
  -exchange  EXHF       =         0.00000000
  -V(xc)+E(xc)   XCENC  =        37.58390198
  PAW double counting   =       488.50197372     -490.93954352
  entropy T*S    EENTRO =        -0.00033116
  eigenvalues    EBANDS =      -114.82105167
  atomic energy  EATOM  =       579.39041991
  ---------------------------------------------------
  free energy    TOTEN  =        -5.64778515 eV

  energy without entropy =       -5.64745399  energy(sigma->0) =       -5.64761957


--------------------------------------------------------------------------------------------------------




----------------------------------------- Iteration    1(  11)  ---------------------------------------


    POTLOK:  cpu time    1.12: real time    1.12
    SETDIJ:  cpu time    0.01: real time    0.01
    EDDIAG:  cpu time    0.12: real time    0.13
  RMM-DIIS:  cpu time    0.48: real time    0.48
    ORTHCH:  cpu time    0.01: real time    0.01
       DOS:  cpu time    0.00: real time    0.00
    CHARGE:  cpu time    0.13: real time    0.13
    MIXING:  cpu time    0.05: real time    0.05
    --------------------------------------------
      LOOP:  cpu time    1.92: real time    1.92

 eigenvalue-minimisations  :    19
 total energy-change (2. order) : 0.7584853E+00  (-0.1850844E-01)
 number of electron      10.0000011 magnetization 
 augmentation part        0.4087764 magnetization 

 Broyden mixing:
  rms(total) = 0.38091E+00    rms(broyden)= 0.37811E+00
  rms(prec ) = 0.50452E+00
  weight for this iteration     100.00

 eigenvalues of (default mixing * dielectric matrix)
  average eigenvalue GAMMA=   0.7985
  2.2071  1.1861  0.5328  0.5328  0.1661  0.1661

 Free energy of the ion-electron system (eV)
  ---------------------------------------------------
  alpha Z        PSCENC =         0.40002888
  Ewald energy   TEWEN  =       -38.05328140
  -1/2 Hartree   DENC   =      -464.88688091
  -exchange  EXHF       =         0.00000000
  -V(xc)+E(xc)   XCENC  =        37.39933352
  PAW double counting   =       484.65845361     -486.95612432
  entropy T*S    EENTRO =        -0.00014955
  eigenvalues    EBANDS =      -116.84109962
  atomic energy  EATOM  =       579.39041991
  ---------------------------------------------------
  free energy    TOTEN  =        -4.88929989 eV

  energy without entropy =       -4.88915033  energy(sigma->0) =       -4.88922511


--------------------------------------------------------------------------------------------------------




----------------------------------------- Iteration    1(  12)  ---------------------------------------


    POTLOK:  cpu time    1.07: real time    1.07
    SETDIJ:  cpu time    0.00: real time    0.01
    EDDIAG:  cpu time    0.11: real time    0.11
  RMM-DIIS:  cpu time    0.40: real time    0.40
    ORTHCH:  cpu time    0.01: real time    0.01
       DOS:  cpu time    0.00: real time    0.00
    CHARGE:  cpu time    0.11: real time    0.11
    MIXING:  cpu time    0.05: real time    0.05
    --------------------------------------------
      LOOP:  cpu time    1.74: real time    1.75

 eigenvalue-minimisations  :    19
 total energy-change (2. order) :-0.4518711E-01  (-0.7197537E-03)
 number of electron      10.0000010 magnetization 
 augmentation part        0.3962163 magnetization 

 Broyden mixing:
  rms(total) = 0.43477E+00    rms(broyden)= 0.43474E+00
  rms(prec ) = 0.59966E+00
  weight for this iteration     100.00

 eigenvalues of (default mixing * dielectric matrix)
  average eigenvalue GAMMA=   1.0902
  3.3733  1.2928  1.2928  0.6704  0.6704  0.1659  0.1659

 Free energy of the ion-electron system (eV)
  ---------------------------------------------------
  alpha Z        PSCENC =         0.40002888
  Ewald energy   TEWEN  =       -38.05328140
  -1/2 Hartree   DENC   =      -464.92130495
  -exchange  EXHF       =         0.00000000
  -V(xc)+E(xc)   XCENC  =        37.36702265
  PAW double counting   =       483.53110218     -485.82392327
  entropy T*S    EENTRO =        -0.00022187
  eigenvalues    EBANDS =      -116.82432911
  atomic energy  EATOM  =       579.39041991
  ---------------------------------------------------
  free energy    TOTEN  =        -4.93448699 eV

  energy without entropy =       -4.93426512  energy(sigma->0) =       -4.93437606


--------------------------------------------------------------------------------------------------------




----------------------------------------- Iteration    1(  13)  ---------------------------------------


    POTLOK:  cpu time    1.06: real time    1.05
    SETDIJ:  cpu time    0.00: real time    0.01
    EDDIAG:  cpu time    0.12: real time    0.12
  RMM-DIIS:  cpu time    0.44: real time    0.44
    ORTHCH:  cpu time    0.00: real time    0.01
       DOS:  cpu time    0.00: real time    0.00
    CHARGE:  cpu time    0.12: real time    0.12
    MIXING:  cpu time    0.06: real time    0.06
    --------------------------------------------
      LOOP:  cpu time    1.81: real time    1.81

 eigenvalue-minimisations  :    18
 total energy-change (2. order) :-0.1192830E+00  (-0.1353273E-02)
 number of electron      10.0000002 magnetization 
 augmentation part        0.3344364 magnetization 

 Broyden mixing:
  rms(total) = 0.74621E+00    rms(broyden)= 0.74601E+00
  rms(prec ) = 0.11053E+01
  weight for this iteration     100.00

 eigenvalues of (default mixing * dielectric matrix)
  average eigenvalue GAMMA=   1.1479
  3.1236  1.7651  1.7651  0.8047  0.6963  0.6963  0.1659  0.1659

 Free energy of the ion-electron system (eV)
  ---------------------------------------------------
  alpha Z        PSCENC =         0.40002888
  Ewald energy   TEWEN  =       -38.05328140
  -1/2 Hartree   DENC   =      -464.95509635
  -exchange  EXHF       =         0.00000000
  -V(xc)+E(xc)   XCENC  =        37.32170374
  PAW double counting   =       480.12176271     -482.38549399
  entropy T*S    EENTRO =        -0.00056267
  eigenvalues    EBANDS =      -116.89325084
  atomic energy  EATOM  =       579.39041991
  ---------------------------------------------------
  free energy    TOTEN  =        -5.05377002 eV

  energy without entropy =       -5.05320735  energy(sigma->0) =       -5.05348869


--------------------------------------------------------------------------------------------------------




----------------------------------------- Iteration    1(  14)  ---------------------------------------


    POTLOK:  cpu time    1.07: real time    1.07
    SETDIJ:  cpu time    0.00: real time    0.01
    EDDIAG:  cpu time    0.12: real time    0.12
  RMM-DIIS:  cpu time    0.48: real time    0.47
    ORTHCH:  cpu time    0.01: real time    0.01
       DOS:  cpu time    0.00: real time    0.00
    CHARGE:  cpu time    0.12: real time    0.12
    MIXING:  cpu time    0.06: real time    0.06
    --------------------------------------------
      LOOP:  cpu time    1.85: real time    1.86

 eigenvalue-minimisations  :    20
 total energy-change (2. order) : 0.1831732E-01  (-0.2734237E-03)
 number of electron      10.0000002 magnetization 
 augmentation part        0.3349707 magnetization 

 Broyden mixing:
  rms(total) = 0.74179E+00    rms(broyden)= 0.74178E+00
  rms(prec ) = 0.11036E+01
  weight for this iteration     100.00

 eigenvalues of (default mixing * dielectric matrix)
  average eigenvalue GAMMA=   1.3063
  4.2071  2.0946  2.0946  0.1659  0.1659  0.7278  0.7278  0.7866  0.7866

 Free energy of the ion-electron system (eV)
  ---------------------------------------------------
  alpha Z        PSCENC =         0.40002888
  Ewald energy   TEWEN  =       -38.05328140
  -1/2 Hartree   DENC   =      -464.68808069
  -exchange  EXHF       =         0.00000000
  -V(xc)+E(xc)   XCENC  =        37.30208432
  PAW double counting   =       478.99007593     -481.25237742
  entropy T*S    EENTRO =        -0.00057889
  eigenvalues    EBANDS =      -117.12374334
  atomic energy  EATOM  =       579.39041991
  ---------------------------------------------------
  free energy    TOTEN  =        -5.03545270 eV

  energy without entropy =       -5.03487381  energy(sigma->0) =       -5.03516326


--------------------------------------------------------------------------------------------------------




----------------------------------------- Iteration    1(  15)  ---------------------------------------


    POTLOK:  cpu time    1.02: real time    1.02
    SETDIJ:  cpu time    0.00: real time    0.01
    EDDIAG:  cpu time    0.12: real time    0.12
  RMM-DIIS:  cpu time    0.45: real time    0.45
    ORTHCH:  cpu time    0.01: real time    0.01
       DOS:  cpu time    0.00: real time    0.00
    CHARGE:  cpu time    0.12: real time    0.12
    MIXING:  cpu time    0.06: real time    0.06
    --------------------------------------------
      LOOP:  cpu time    1.78: real time    1.78

 eigenvalue-minimisations  :    19
 total energy-change (2. order) : 0.2379983E+00  (-0.1570467E-01)
 number of electron      10.0000012 magnetization 
 augmentation part        0.4484568 magnetization 

 Broyden mixing:
  rms(total) = 0.14348E+00    rms(broyden)= 0.14124E+00
  rms(prec ) = 0.19337E+00
  weight for this iteration     100.00

 eigenvalues of (default mixing * dielectric matrix)
  average eigenvalue GAMMA=   1.2926
  4.3654  2.0957  2.0957  0.1659  0.1659  0.9346  0.9346  0.8030  0.6825  0.6825

 Free energy of the ion-electron system (eV)
  ---------------------------------------------------
  alpha Z        PSCENC =         0.40002888
  Ewald energy   TEWEN  =       -38.05328140
  -1/2 Hartree   DENC   =      -461.80996484
  -exchange  EXHF       =         0.00000000
  -V(xc)+E(xc)   XCENC  =        37.08291960
  PAW double counting   =       469.08379414     -471.29921685
  entropy T*S    EENTRO =        -0.00015682
  eigenvalues    EBANDS =      -119.59199702
  atomic energy  EATOM  =       579.39041991
  ---------------------------------------------------
  free energy    TOTEN  =        -4.79745441 eV

  energy without entropy =       -4.79729759  energy(sigma->0) =       -4.79737600


--------------------------------------------------------------------------------------------------------




----------------------------------------- Iteration    1(  16)  ---------------------------------------


    POTLOK:  cpu time    1.02: real time    1.02
    SETDIJ:  cpu time    0.00: real time    0.00
    EDDIAG:  cpu time    0.12: real time    0.12
  RMM-DIIS:  cpu time    0.44: real time    0.44
    ORTHCH:  cpu time    0.00: real time    0.01
       DOS:  cpu time    0.00: real time    0.00
    CHARGE:  cpu time    0.11: real time    0.10
    MIXING:  cpu time    0.06: real time    0.06
    --------------------------------------------
      LOOP:  cpu time    1.75: real time    1.75

 eigenvalue-minimisations  :    20
 total energy-change (2. order) :-0.1187084E-01  (-0.1190794E-02)
 number of electron      10.0000013 magnetization 
 augmentation part        0.4572370 magnetization 

 Broyden mixing:
  rms(total) = 0.96228E-01    rms(broyden)= 0.96035E-01
  rms(prec ) = 0.13059E+00
  weight for this iteration     100.00

 eigenvalues of (default mixing * dielectric matrix)
  average eigenvalue GAMMA=   1.8709
  8.4349  2.9593  2.9593  1.3891  1.3891  0.1659  0.1659  0.6980  0.6980  0.8600
  0.8600

 Free energy of the ion-electron system (eV)
  ---------------------------------------------------
  alpha Z        PSCENC =         0.40002888
  Ewald energy   TEWEN  =       -38.05328140
  -1/2 Hartree   DENC   =      -461.33995425
  -exchange  EXHF       =         0.00000000
  -V(xc)+E(xc)   XCENC  =        37.03366443
  PAW double counting   =       467.03444477     -469.25038674
  entropy T*S    EENTRO =        -0.00015015
  eigenvalues    EBANDS =      -120.02411070
  atomic energy  EATOM  =       579.39041991
  ---------------------------------------------------
  free energy    TOTEN  =        -4.80932525 eV

  energy without entropy =       -4.80917510  energy(sigma->0) =       -4.80925017


--------------------------------------------------------------------------------------------------------




----------------------------------------- Iteration    1(  17)  ---------------------------------------


    POTLOK:  cpu time    0.94: real time    0.94
    SETDIJ:  cpu time    0.00: real time    0.00
    EDDIAG:  cpu time    0.10: real time    0.10
  RMM-DIIS:  cpu time    0.38: real time    0.38
    ORTHCH:  cpu time    0.01: real time    0.01
       DOS:  cpu time    0.00: real time    0.00
    CHARGE:  cpu time    0.10: real time    0.10
    MIXING:  cpu time    0.06: real time    0.06
    --------------------------------------------
      LOOP:  cpu time    1.60: real time    1.60

 eigenvalue-minimisations  :    19
 total energy-change (2. order) :-0.2468593E-02  (-0.1318646E-02)
 number of electron      10.0000011 magnetization 
 augmentation part        0.4517385 magnetization 

 Broyden mixing:
  rms(total) = 0.11726E+00    rms(broyden)= 0.11723E+00
  rms(prec ) = 0.17648E+00
  weight for this iteration     100.00

 eigenvalues of (default mixing * dielectric matrix)
  average eigenvalue GAMMA=   1.7786
  8.8228  2.7469  2.7469  0.1659  0.1659  1.3593  1.3593  0.6909  0.6909  0.9041
  0.9041  0.7858

 Free energy of the ion-electron system (eV)
  ---------------------------------------------------
  alpha Z        PSCENC =         0.40002888
  Ewald energy   TEWEN  =       -38.05328140
  -1/2 Hartree   DENC   =      -460.44648575
  -exchange  EXHF       =         0.00000000
  -V(xc)+E(xc)   XCENC  =        36.95692525
  PAW double counting   =       463.96018838     -466.18593116
  entropy T*S    EENTRO =        -0.00021633
  eigenvalues    EBANDS =      -120.83344162
  atomic energy  EATOM  =       579.39041991
  ---------------------------------------------------
  free energy    TOTEN  =        -4.81179384 eV

  energy without entropy =       -4.81157751  energy(sigma->0) =       -4.81168568


--------------------------------------------------------------------------------------------------------




----------------------------------------- Iteration    1(  18)  ---------------------------------------


    POTLOK:  cpu time    0.94: real time    0.95
    SETDIJ:  cpu time    0.00: real time    0.00
    EDDIAG:  cpu time    0.10: real time    0.10
  RMM-DIIS:  cpu time    0.40: real time    0.40
    ORTHCH:  cpu time    0.00: real time    0.01
       DOS:  cpu time    0.00: real time    0.00
    CHARGE:  cpu time    0.10: real time    0.10
    MIXING:  cpu time    0.06: real time    0.07
    --------------------------------------------
      LOOP:  cpu time    1.63: real time    1.63

 eigenvalue-minimisations  :    21
 total energy-change (2. order) :-0.2134449E-03  (-0.1187288E-03)
 number of electron      10.0000011 magnetization 
 augmentation part        0.4513453 magnetization 

 Broyden mixing:
  rms(total) = 0.12062E+00    rms(broyden)= 0.12062E+00
  rms(prec ) = 0.18365E+00
  weight for this iteration     100.00

 eigenvalues of (default mixing * dielectric matrix)
  average eigenvalue GAMMA=   2.0947
 12.7750  2.8695  2.8695  1.3159  1.3159  0.1659  0.1659  1.3291  1.3291  0.6949
  0.6949  0.8527  0.8527

 Free energy of the ion-electron system (eV)
  ---------------------------------------------------
  alpha Z        PSCENC =         0.40002888
  Ewald energy   TEWEN  =       -38.05328140
  -1/2 Hartree   DENC   =      -460.31836058
  -exchange  EXHF       =         0.00000000
  -V(xc)+E(xc)   XCENC  =        36.94672115
  PAW double counting   =       463.67740174     -465.90147080
  entropy T*S    EENTRO =        -0.00022801
  eigenvalues    EBANDS =      -120.95323818
  atomic energy  EATOM  =       579.39041991
  ---------------------------------------------------
  free energy    TOTEN  =        -4.81200729 eV

  energy without entropy =       -4.81177928  energy(sigma->0) =       -4.81189328


--------------------------------------------------------------------------------------------------------




----------------------------------------- Iteration    1(  19)  ---------------------------------------


    POTLOK:  cpu time    0.96: real time    0.96
    SETDIJ:  cpu time    0.00: real time    0.01
    EDDIAG:  cpu time    0.10: real time    0.11
  RMM-DIIS:  cpu time    0.36: real time    0.36
    ORTHCH:  cpu time    0.01: real time    0.01
       DOS:  cpu time    0.00: real time    0.00
    CHARGE:  cpu time    0.11: real time    0.11
    MIXING:  cpu time    0.07: real time    0.07
    --------------------------------------------
      LOOP:  cpu time    1.62: real time    1.63

 eigenvalue-minimisations  :    19
 total energy-change (2. order) : 0.4443172E-02  (-0.1220310E-02)
 number of electron      10.0000014 magnetization 
 augmentation part        0.4826300 magnetization 

 Broyden mixing:
  rms(total) = 0.43934E-01    rms(broyden)= 0.43401E-01
  rms(prec ) = 0.61739E-01
  weight for this iteration     100.00

 eigenvalues of (default mixing * dielectric matrix)
  average eigenvalue GAMMA=   2.1297
 13.0443  3.9978  2.2620  1.7989  1.7989  0.1659  0.1659  1.2315  1.2315  0.6950
  0.6950  0.9619  0.9619  0.8059

 Free energy of the ion-electron system (eV)
  ---------------------------------------------------
  alpha Z        PSCENC =         0.40002888
  Ewald energy   TEWEN  =       -38.05328140
  -1/2 Hartree   DENC   =      -459.45093901
  -exchange  EXHF       =         0.00000000
  -V(xc)+E(xc)   XCENC  =        36.88920036
  PAW double counting   =       462.07594161     -464.28727154
  entropy T*S    EENTRO =        -0.00011325
  eigenvalues    EBANDS =      -121.77154966
  atomic energy  EATOM  =       579.39041991
  ---------------------------------------------------
  free energy    TOTEN  =        -4.80756412 eV

  energy without entropy =       -4.80745087  energy(sigma->0) =       -4.80750749


--------------------------------------------------------------------------------------------------------




----------------------------------------- Iteration    1(  20)  ---------------------------------------


    POTLOK:  cpu time    1.02: real time    1.02
    SETDIJ:  cpu time    0.00: real time    0.01
    EDDIAG:  cpu time    0.12: real time    0.11
  RMM-DIIS:  cpu time    0.32: real time    0.32
    ORTHCH:  cpu time    0.00: real time    0.01
       DOS:  cpu time    0.00: real time    0.00
    CHARGE:  cpu time    0.11: real time    0.11
    MIXING:  cpu time    0.08: real time    0.08
    --------------------------------------------
      LOOP:  cpu time    1.67: real time    1.67

 eigenvalue-minimisations  :    15
 total energy-change (2. order) :-0.1070537E-02  (-0.2734063E-04)
 number of electron      10.0000013 magnetization 
 augmentation part        0.4794004 magnetization 

 Broyden mixing:
  rms(total) = 0.25619E-01    rms(broyden)= 0.25612E-01
  rms(prec ) = 0.35663E-01
  weight for this iteration     100.00

 eigenvalues of (default mixing * dielectric matrix)
  average eigenvalue GAMMA=   2.0533
 11.5885  4.6121  2.4802  2.4802  1.3117  1.3117  0.1659  0.1659  1.2969  1.2969
  0.6949  0.6949  0.9600  0.9600  0.7794

 Free energy of the ion-electron system (eV)
  ---------------------------------------------------
  alpha Z        PSCENC =         0.40002888
  Ewald energy   TEWEN  =       -38.05328140
  -1/2 Hartree   DENC   =      -459.53814280
  -exchange  EXHF       =         0.00000000
  -V(xc)+E(xc)   XCENC  =        36.89693686
  PAW double counting   =       462.33237714     -464.55192994
  entropy T*S    EENTRO =        -0.00012321
  eigenvalues    EBANDS =      -121.68492010
  atomic energy  EATOM  =       579.39041991
  ---------------------------------------------------
  free energy    TOTEN  =        -4.80863465 eV

  energy without entropy =       -4.80851144  energy(sigma->0) =       -4.80857305


--------------------------------------------------------------------------------------------------------




----------------------------------------- Iteration    1(  21)  ---------------------------------------


    POTLOK:  cpu time    1.00: real time    1.00
    SETDIJ:  cpu time    0.00: real time    0.01
    EDDIAG:  cpu time    0.10: real time    0.10
  RMM-DIIS:  cpu time    0.34: real time    0.34
    ORTHCH:  cpu time    0.00: real time    0.01
       DOS:  cpu time    0.00: real time    0.00
    CHARGE:  cpu time    0.10: real time    0.10
    MIXING:  cpu time    0.08: real time    0.08
    --------------------------------------------
      LOOP:  cpu time    1.63: real time    1.64

 eigenvalue-minimisations  :    16
 total energy-change (2. order) :-0.2884968E-03  (-0.2879387E-04)
 number of electron      10.0000014 magnetization 
 augmentation part        0.4813774 magnetization 

 Broyden mixing:
  rms(total) = 0.34090E-01    rms(broyden)= 0.34080E-01
  rms(prec ) = 0.51220E-01
  weight for this iteration     100.00

 eigenvalues of (default mixing * dielectric matrix)
  average eigenvalue GAMMA=   2.0532
 10.9382  5.4305  2.7122  2.7122  0.1659  0.1659  1.3156  1.3156  1.5361  1.5361
  0.6948  0.6948  0.9655  0.9655  0.8694  0.8331

 Free energy of the ion-electron system (eV)
  ---------------------------------------------------
  alpha Z        PSCENC =         0.40002888
  Ewald energy   TEWEN  =       -38.05328140
  -1/2 Hartree   DENC   =      -459.65939251
  -exchange  EXHF       =         0.00000000
  -V(xc)+E(xc)   XCENC  =        36.90893633
  PAW double counting   =       462.71084251     -464.93065756
  entropy T*S    EENTRO =        -0.00011094
  eigenvalues    EBANDS =      -121.57570838
  atomic energy  EATOM  =       579.39041991
  ---------------------------------------------------
  free energy    TOTEN  =        -4.80892315 eV

  energy without entropy =       -4.80881221  energy(sigma->0) =       -4.80886768


--------------------------------------------------------------------------------------------------------




----------------------------------------- Iteration    1(  22)  ---------------------------------------


    POTLOK:  cpu time    1.05: real time    1.05
    SETDIJ:  cpu time    0.01: real time    0.01
    EDDIAG:  cpu time    0.10: real time    0.10
  RMM-DIIS:  cpu time    0.26: real time    0.26
    ORTHCH:  cpu time    0.01: real time    0.01
       DOS:  cpu time    0.00: real time    0.00
    --------------------------------------------
      LOOP:  cpu time    1.42: real time    1.42

 eigenvalue-minimisations  :    11
 total energy-change (2. order) :-0.8008685E-04  (-0.8390444E-05)
 number of electron      10.0000014 magnetization 
 augmentation part        0.4813774 magnetization 

 Free energy of the ion-electron system (eV)
  ---------------------------------------------------
  alpha Z        PSCENC =         0.40002888
  Ewald energy   TEWEN  =       -38.05328140
  -1/2 Hartree   DENC   =      -459.70650683
  -exchange  EXHF       =         0.00000000
  -V(xc)+E(xc)   XCENC  =        36.91369283
  PAW double counting   =       462.79612797     -465.01672929
  entropy T*S    EENTRO =        -0.00010814
  eigenvalues    EBANDS =      -121.53264717
  atomic energy  EATOM  =       579.39041991
  ---------------------------------------------------
  free energy    TOTEN  =        -4.80900324 eV

  energy without entropy =       -4.80889510  energy(sigma->0) =       -4.80894917


--------------------------------------------------------------------------------------------------------




 average (electrostatic) potential at core
  the test charge radii are     0.6991  0.7215
  (the norm of the test charge is              1.0000)
       1 -64.4389       2 -81.6625
 
 
 
 E-fermi :  -6.9315     XC(G=0):  -0.7704     alpha+bet : -0.1603


 k-point   1 :       0.0000    0.0000    0.0000
  band No.  band energies     occupation 
      1     -22.2528      2.00000
      2     -15.1612      2.00000
      3      -8.3344      2.00000
      4      -7.5095      1.99996
      5      -7.5085      1.99995
      6      -6.3543      0.00004
      7      -6.3538      0.00004
      8      -4.8090      0.00000
      9      -0.4073      0.00000


--------------------------------------------------------------------------------------------------------


 soft charge-density along one line, spin component           1
         0         1         2         3         4         5         6         7         8         9
 total charge-density along one line
 
 pseudopotential strength for first ion, spin component:           1
 10.551  14.039  -0.000   0.003  -0.000   0.000  -0.010   0.000
 14.039  18.680  -0.000   0.004  -0.000   0.000  -0.012   0.000
 -0.000  -0.000  -4.719  -0.000   0.000   9.263   0.000  -0.000
  0.003   0.004  -0.000  -4.705   0.000   0.000   9.235  -0.000
 -0.000  -0.000   0.000   0.000  -4.719  -0.000  -0.000   9.263
  0.000   0.000   9.263   0.000  -0.000 -20.338  -0.000   0.000
 -0.010  -0.012   0.000   9.235  -0.000  -0.000 -20.282   0.000
  0.000   0.000  -0.000  -0.000   9.263   0.000   0.000 -20.338
 total augmentation occupancy for first ion, spin component:           1
  1.431   0.196   0.000   0.059   0.000   0.000   0.001   0.000
  0.196   0.079   0.000  -0.173   0.000   0.000  -0.005   0.000
  0.000   0.000   0.488   0.000   0.000   0.004   0.000   0.000
  0.059  -0.173   0.000   0.777   0.000   0.000   0.018   0.000
  0.000   0.000   0.000   0.000   0.489   0.000   0.000   0.004
  0.000   0.000   0.004   0.000   0.000   0.000   0.000   0.000
  0.001  -0.005   0.000   0.018   0.000   0.000   0.001   0.000
  0.000   0.000   0.000   0.000   0.004   0.000   0.000   0.000


------------------------ aborting loop because EDIFF is reached ----------------------------------------


    CHARGE:  cpu time    0.11: real time    0.11
    FORLOC:  cpu time    0.08: real time    0.08
    FORNL :  cpu time    0.06: real time    0.06
    STRESS:  cpu time    0.35: real time    0.35
    FORCOR:  cpu time    1.27: real time    1.27
    FORHAR:  cpu time    0.31: real time    0.31
    MIXING:  cpu time    0.09: real time    0.09

  FORCE on cell =-STRESS in cart. coord.  units (eV):
  Direction    XX          YY          ZZ          XY          YZ          ZX
  --------------------------------------------------------------------------------------
  Alpha Z     0.40003     0.40003     0.40003
  Ewald     -63.85271   -67.62318    93.42259     0.00000    -0.00000    -0.00000
  Hartree   119.82431   116.15662   226.32305    -0.00000    -0.00000    -0.00000
  E(xc)     -40.44528   -40.44479   -39.93037    -0.00000    -0.00000    -0.00000
  Local    -184.08716  -176.63822  -449.16982     0.00000    -0.00000     0.00000
  n-local   -13.86175   -13.85385   -14.25131     0.00000     0.00000     0.00000
  augment     6.06387     6.06436     5.38884    -0.00000     0.00000    -0.00000
  Kinetic   175.80424   175.81521   163.94849     0.00000     0.00000     0.00000
  Fock        0.00000     0.00000     0.00000     0.00000     0.00000     0.00000
  -------------------------------------------------------------------------------------
  Total      -0.15445    -0.12382   -13.86850     0.00000     0.00000     0.00000
  in kB      -0.22655    -0.18161   -20.34193     0.00000     0.00000     0.00000
  external pressure =       -6.92 kB  Pullay stress =        0.00 kB


 VOLUME and BASIS-vectors are now :
 -----------------------------------------------------------------------------
  energy-cutoff  :      400.00
  volume of cell :     1092.32
      direct lattice vectors                 reciprocal lattice vectors
    10.100000000  0.000000000  0.000000000     0.099009901  0.000000000  0.000000000
     0.000000000 10.300000000  0.000000000     0.000000000  0.097087379  0.000000000
     0.000000000  0.000000000 10.500000000     0.000000000  0.000000000  0.095238095

  length of vectors
    10.100000000 10.300000000 10.500000000     0.099009901  0.097087379  0.095238095


 FORCES acting on ions
    electron-ion (+dipol)            ewald-force                    non-local-force                 convergence-correction
 -----------------------------------------------------------------------------------------------
   -.704E-15 0.231E-14 0.650E+02   -.564E-16 0.178E-16 -.684E+02   0.000E+00 0.000E+00 0.990E+01   0.518E-13 -.156E-13 -.433E+00
   0.466E-14 0.171E-14 -.609E+02   0.880E-16 -.340E-17 0.684E+02   0.000E+00 0.000E+00 -.129E+02   0.155E-12 -.935E-13 -.689E+00
 -----------------------------------------------------------------------------------------------
   0.396E-14 0.402E-14 0.413E+01   0.315E-16 0.144E-16 0.000E+00   0.000E+00 0.000E+00 -.302E+01   0.206E-12 -.109E-12 -.112E+01
 
 
 POSITION                                       TOTAL-FORCE (eV/Angst)
 -----------------------------------------------------------------------------------
      0.00000      0.00000      0.00000         0.000000      0.000000      6.151116
      0.00000      0.00000      2.20000         0.000000      0.000000     -6.151116
 -----------------------------------------------------------------------------------
    total drift:                                0.000000     -0.000000     -0.006983


--------------------------------------------------------------------------------------------------------



  FREE ENERGIE OF THE ION-ELECTRON SYSTEM (eV)
  ---------------------------------------------------
  free  energy   TOTEN  =        -4.80900324 eV

  energy  without entropy=       -4.80889510  energy(sigma->0) =       -4.80894917
 


--------------------------------------------------------------------------------------------------------


    POTLOK:  cpu time    1.18: real time    1.18


--------------------------------------------------------------------------------------------------------


     LOOP+:  cpu time   38.02: real time   38.08
    4ORBIT:  cpu time    0.00: real time    0.00

 total amount of memory used by VASP on root node   140193. kBytes
========================================================================

   base      :      30000. kBytes
   nonl-proj :       3171. kBytes
   fftplans  :      37440. kBytes
   grid      :      66720. kBytes
   one-center:          6. kBytes
   wavefun   :       2856. kBytes
 
  
  
 General timing and accounting informations for this job:
 ========================================================
  
                  Total CPU time used (sec):       40.400
                            User time (sec):       40.116
                          System time (sec):        0.284
                         Elapsed time (sec):       40.458
  
                   Maximum memory used (kb):      234552.
                   Average memory used (kb):           0.
  
                          Minor page faults:        61296
                          Major page faults:            0
                 Voluntary context switches:            1
