 vasp.5.3.3 18Dez12 (build Sep  7 2015 22:32:56) complex                        
  
 executed on             LinuxIFC date 2002.02.05  00:58:47
 running on    1 total cores
 distrk:  each k-point on    1 cores,    1 groups
 distr:  one band on NCORES_PER_BAND=   1 cores,    1 groups


--------------------------------------------------------------------------------------------------------


 INCAR:
 POTCAR:    PAW_PBE C 08Apr2002                   
 POTCAR:    PAW_PBE O 08Apr2002                   
 POTCAR:    PAW_PBE C 08Apr2002                   
   VRHFIN =C: s2p2                                                              
   LEXCH  = PE                                                                  
   EATOM  =   147.1560 eV,   10.8157 Ry                                         
                                                                                
   TITEL  = PAW_PBE C 08Apr2002                                                 
   LULTRA =        F    use ultrasoft PP ?                                      
   IUNSCR =        1    unscreen: 0-lin 1-nonlin 2-no                           
   RPACOR =    1.200    partial core radius                                     
   POMASS =   12.011; ZVAL   =    4.000    mass and valenz                      
   RCORE  =    1.500    outmost cutoff radius                                   
   RWIGS  =    1.630; RWIGS  =    0.863    wigner-seitz radius (au A)           
   ENMAX  =  400.000; ENMIN  =  300.000 eV                                      
   ICORE  =        2    local potential                                         
   LCOR   =        T    correct aug charges                                     
   LPAW   =        T    paw PP                                                  
   EAUG   =  644.873                                                            
   DEXC   =    0.000                                                            
   RMAX   =    1.529    core radius for proj-oper                               
   RAUG   =    1.300    factor for augmentation sphere                          
   RDEP   =    1.501    radius for radial grids                                 
   RDEPT  =    1.300    core radius for aug-charge                              
                                                                                
   Atomic configuration                                                         
    4 entries                                                                   
     n  l   j            E        occ.                                          
     1  0  0.50      -273.3789   2.0000                                         
     2  0  0.50       -13.7508   2.0000                                         
     2  1  0.50        -5.2854   2.0000                                         
     3  2  1.50        -5.4423   0.0000                                         
   Description                                                                  
     l       E           TYP  RCUT    TYP  RCUT                                 
     0    -13.7508458     23  1.200                                             
     0     -8.2022199     23  1.200                                             
     1     -5.2854383     23  1.500                                             
     1     34.0145650     23  1.500                                             
     2     -5.4423304      7  1.500                                             
  local pseudopotential read in
  partial core-charges read in
  partial kinetic energy density read in
  atomic valenz-charges read in
  non local Contribution for L=           0  read in
    real space projection operators read in
  non local Contribution for L=           0  read in
    real space projection operators read in
  non local Contribution for L=           1  read in
    real space projection operators read in
  non local Contribution for L=           1  read in
    real space projection operators read in
    PAW grid and wavefunctions read in
 
   number of l-projection  operators is LMAX  =           4
   number of lm-projection operators is LMMAX =           8
 
 POTCAR:    PAW_PBE O 08Apr2002                   
   VRHFIN =O: s2p4                                                              
   LEXCH  = PE                                                                  
   EATOM  =   432.3788 eV,   31.7789 Ry                                         
                                                                                
   TITEL  = PAW_PBE O 08Apr2002                                                 
   LULTRA =        F    use ultrasoft PP ?                                      
   IUNSCR =        1    unscreen: 0-lin 1-nonlin 2-no                           
   RPACOR =    1.200    partial core radius                                     
   POMASS =   16.000; ZVAL   =    6.000    mass and valenz                      
   RCORE  =    1.520    outmost cutoff radius                                   
   RWIGS  =    1.550; RWIGS  =    0.820    wigner-seitz radius (au A)           
   ENMAX  =  400.000; ENMIN  =  300.000 eV                                      
   ICORE  =        2    local potential                                         
   LCOR   =        T    correct aug charges                                     
   LPAW   =        T    paw PP                                                  
   EAUG   =  605.392                                                            
   DEXC   =    0.000                                                            
   RMAX   =    1.553    core radius for proj-oper                               
   RAUG   =    1.300    factor for augmentation sphere                          
   RDEP   =    1.550    radius for radial grids                                 
   RDEPT  =    1.329    core radius for aug-charge                              
                                                                                
   Atomic configuration                                                         
    4 entries                                                                   
     n  l   j            E        occ.                                          
     1  0  0.50      -514.6923   2.0000                                         
     2  0  0.50       -23.9615   2.0000                                         
     2  1  0.50        -9.0305   4.0000                                         
     3  2  1.50        -9.5241   0.0000                                         
   Description                                                                  
     l       E           TYP  RCUT    TYP  RCUT                                 
     0    -23.9615318     23  1.200                                             
     0     -9.5240782     23  1.200                                             
     1     -9.0304911     23  1.520                                             
     1      8.1634956     23  1.520                                             
     2     -9.5240782      7  1.500                                             
  local pseudopotential read in
  partial core-charges read in
  partial kinetic energy density read in
  kinetic energy density of atom read in
  atomic valenz-charges read in
  non local Contribution for L=           0  read in
    real space projection operators read in
  non local Contribution for L=           0  read in
    real space projection operators read in
  non local Contribution for L=           1  read in
    real space projection operators read in
  non local Contribution for L=           1  read in
    real space projection operators read in
    PAW grid and wavefunctions read in
 
   number of l-projection  operators is LMAX  =           4
   number of lm-projection operators is LMMAX =           8
 
  PAW_PBE C 08Apr2002                   :
 energy of atom  1       EATOM= -147.1560
 kinetic energy error for atom=    0.0288 (will be added to EATOM!!)
  PAW_PBE O 08Apr2002                   :
 energy of atom  2       EATOM= -432.3788
 kinetic energy error for atom=    0.1156 (will be added to EATOM!!)
 
 
 POSCAR: CO molecule in a box                    
  positions in cartesian coordinates
  No initial velocities read in
 exchange correlation table for  LEXCH =        8
   RHO(1)=    0.500       N(1)  =     2000
   RHO(2)=  100.500       N(2)  =     4000
 


--------------------------------------------------------------------------------------------------------


 ion  position               nearest neighbor table
   1  0.000  0.000  0.000-   2 2.00
   2  0.000  0.000  0.190-   1 2.00
 
  LATTYP: Found a simple orthorhombic cell.
 ALAT       =    10.1000000000
 B/A-ratio  =     1.0198019802
 C/A-ratio  =     1.0396039604
  
  Lattice vectors:
  
 A1 = (  10.1000000000,   0.0000000000,   0.0000000000)
 A2 = (   0.0000000000,  10.3000000000,   0.0000000000)
 A3 = (   0.0000000000,   0.0000000000,  10.5000000000)


Analysis of symmetry for initial positions (statically):
=====================================================================
 Subroutine PRICEL returns:
 Original cell was already a primitive cell.
 

 Routine SETGRP: Setting up the symmetry group for a 
 simple orthorhombic supercell.


 Subroutine GETGRP returns: Found  4 space group operations
 (whereof  4 operations were pure point group operations)
 out of a pool of  8 trial point group operations.


The static configuration has the point symmetry C_2v.


Analysis of symmetry for dynamics (positions and initial velocities):
=====================================================================
 Subroutine PRICEL returns:
 Original cell was already a primitive cell.
 

 Routine SETGRP: Setting up the symmetry group for a 
 simple orthorhombic supercell.


 Subroutine GETGRP returns: Found  4 space group operations
 (whereof  4 operations were pure point group operations)
 out of a pool of  8 trial point group operations.


The dynamic configuration has the point symmetry C_2v.


Analysis of constrained symmetry for selective dynamics:
=====================================================================
 Subroutine PRICEL returns:
 Original cell was already a primitive cell.
 

 Routine SETGRP: Setting up the symmetry group for a 
 simple orthorhombic supercell.


 Subroutine GETGRP returns: Found  4 space group operations
 (whereof  4 operations were pure point group operations)
 out of a pool of  8 trial point group operations.


The constrained configuration has the point symmetry C_2v.


 irot  :   1
 --------------------------------------------------------------------
 isymop:   1   0   0
           0   1   0
           0   0   1

 gtrans:     0.0000000     0.0000000     0.0000000

 ptrans:     0.0000000     0.0000000     0.0000000
 rotmap:
 (   1->   1)  (   2->   2) 


 irot  :   2
 --------------------------------------------------------------------
 isymop:  -1   0   0
           0  -1   0
           0   0   1

 gtrans:     0.0000000     0.0000000     0.0000000

 ptrans:     0.0000000     0.0000000     0.0000000
 rotmap:
 (   1->   1)  (   2->   2) 


 irot  :   3
 --------------------------------------------------------------------
 isymop:   1   0   0
           0  -1   0
           0   0   1

 gtrans:     0.0000000     0.0000000     0.0000000

 ptrans:     0.0000000     0.0000000     0.0000000
 rotmap:
 (   1->   1)  (   2->   2) 


 irot  :   4
 --------------------------------------------------------------------
 isymop:  -1   0   0
           0   1   0
           0   0   1

 gtrans:     0.0000000     0.0000000     0.0000000

 ptrans:     0.0000000     0.0000000     0.0000000
 rotmap:
 (   1->   1)  (   2->   2) 
 
 
 KPOINTS: Gamma-point only                        

Automatic generation of k-mesh.
Space group operators:
 irot       det(A)        alpha          n_x          n_y          n_z        tau_x        tau_y        tau_z
    1     1.000000     0.000000     1.000000     0.000000     0.000000     0.000000     0.000000     0.000000
    2     1.000000   180.000000     0.000000     0.000000     1.000000     0.000000     0.000000     0.000000
    3    -1.000000   180.000000     0.000000     1.000000     0.000000     0.000000     0.000000     0.000000
    4    -1.000000   180.000000     1.000000     0.000000     0.000000     0.000000     0.000000     0.000000
 
 Subroutine IBZKPT returns following result:
 ===========================================
 
 Found      1 irreducible k-points:
 
 Following reciprocal coordinates:
            Coordinates               Weight
  0.000000  0.000000  0.000000      1.000000
 
 Following cartesian coordinates:
            Coordinates               Weight
  0.000000  0.000000  0.000000      1.000000
 


--------------------------------------------------------------------------------------------------------




 Dimension of arrays:
   k-points           NKPTS =      1   k-points in BZ     NKDIM =      1   number of bands    NBANDS=      9
   number of dos      NEDOS =    301   number of ions     NIONS =      2
   non local maximal  LDIM  =      4   non local SUM 2l+1 LMDIM =      8
   total plane-waves  NPLWV = 135000
   max r-space proj   IRMAX =      1   max aug-charges    IRDMAX=   1803
   dimension x,y,z NGX =    50 NGY =   50 NGZ =   54
   dimension x,y,z NGXF=   100 NGYF=  100 NGZF=  108
   support grid    NGXF=   100 NGYF=  100 NGZF=  108
   ions per type =               1   1
 NGX,Y,Z   is equivalent  to a cutoff of   8.23,  8.07,  8.55 a.u.
 NGXF,Y,Z  is equivalent  to a cutoff of  16.46, 16.14, 17.10 a.u.


 I would recommend the setting:
   dimension x,y,z NGX =    49 NGY =   50 NGZ =   51
 SYSTEM =  Hello World                             
 POSCAR =  CO molecule in a box                    

 Startparameter for this run:
   NWRITE =      2    write-flag & timer
   PREC   = normal    normal or accurate (medium, high low for compatibility)
   ISTART =      0    job   : 0-new  1-cont  2-samecut
   ICHARG =      2    charge: 1-file 2-atom 10-const
   ISPIN  =      1    spin polarized calculation?
   LNONCOLLINEAR =      F non collinear calculations
   LSORBIT =      F    spin-orbit coupling
   INIWAV =      1    electr: 0-lowe 1-rand  2-diag
   LASPH  =      F    aspherical Exc in radial PAW
   METAGGA=      F    non-selfconsistent MetaGGA calc.

 Electronic Relaxation 1
   ENCUT  =  400.0 eV  29.40 Ry    5.42 a.u.  16.47 16.80 17.12*2*pi/ulx,y,z
   ENINI  =  400.0     initial cutoff
   ENAUG  =  644.9 eV  augmentation charge cutoff
   NELM   =     60;   NELMIN=  2; NELMDL=  0     # of ELM steps 
   EDIFF  = 0.1E-03   stopping-criterion for ELM
   LREAL  =      F    real-space projection
   NLSPLINE    = F    spline interpolate recip. space projectors
   LCOMPAT=      F    compatible to vasp.4.4
   GGA_COMPAT  = T    GGA compatible to vasp.4.4-vasp.4.6
   LMAXPAW     = -100 max onsite density
   LMAXMIX     =    2 max onsite mixed and CHGCAR
   VOSKOWN=      0    Vosko Wilk Nusair interpolation
   ROPT   =    0.00000   0.00000
 Ionic relaxation
   EDIFFG = -.1E-01   stopping-criterion for IOM
   NSW    =      0    number of steps for IOM
   NBLOCK =      1;   KBLOCK =      1    inner block; outer block 
   IBRION =     -1    ionic relax: 0-MD 1-quasi-New 2-CG
   NFREE  =      0    steps in history (QN), initial steepest desc. (CG)
   ISIF   =      2    stress and relaxation
   IWAVPR =     10    prediction:  0-non 1-charg 2-wave 3-comb
   ISYM   =      2    0-nonsym 1-usesym 2-fastsym
   LCORR  =      T    Harris-Foulkes like correction to forces

   POTIM  = 0.5000    time-step for ionic-motion
   TEIN   =    0.0    initial temperature
   TEBEG  =    0.0;   TEEND  =   0.0 temperature during run
   SMASS  =  -3.00    Nose mass-parameter (am)
   estimated Nose-frequenzy (Omega)   =  0.10E-29 period in steps =****** mass=  -0.233E-26a.u.
   SCALEE = 1.0000    scale energy and forces
   NPACO  =    256;   APACO  = 16.0  distance and # of slots for P.C.
   PSTRESS=    0.0 pullay stress

  Mass of Ions in am
   POMASS =  12.01 16.00
  Ionic Valenz
   ZVAL   =   4.00  6.00
  Atomic Wigner-Seitz radii
   RWIGS  =  -1.00 -1.00
  virtual crystal weights 
   VCA    =   1.00  1.00
   NELECT =      10.0000    total number of electrons
   NUPDOWN=      -1.0000    fix difference up-down

 DOS related values:
   EMIN   =  10.00;   EMAX   =-10.00  energy-range for DOS
   EFERMI =   0.00
   ISMEAR =     0;   SIGMA  =   0.20  broadening in eV -4-tet -1-fermi 0-gaus

 Electronic relaxation 2 (details)
   IALGO  =     68    algorithm
   LDIAG  =      T    sub-space diagonalisation (order eigenvalues)
   LSUBROT=      T    optimize rotation matrix (better conditioning)
   TURBO    =      0    0=normal 1=particle mesh
   IRESTART =      0    0=no restart 2=restart with 2 vectors
   NREBOOT  =      0    no. of reboots
   NMIN     =      0    reboot dimension
   EREF     =   0.00    reference energy to select bands
   IMIX   =      4    mixing-type and parameters
     AMIX     =   0.40;   BMIX     =  1.00
     AMIX_MAG =   1.60;   BMIX_MAG =  1.00
     AMIN     =   0.10
     WC   =   100.;   INIMIX=   1;  MIXPRE=   1;  MAXMIX= -45

 Intra band minimization:
   WEIMIN = 0.0000     energy-eigenvalue tresh-hold
   EBREAK =  0.28E-05  absolut break condition
   DEPER  =   0.30     relativ break condition  

   TIME   =   0.40     timestep for ELM

  volume/ion in A,a.u.               =     546.16      3685.65
  Fermi-wavevector in a.u.,A,eV,Ry     =   0.342472  0.647179  1.595791  0.117287
  Thomas-Fermi vector in A             =   1.247862
 
 Write flags
   LWAVE  =      F    write WAVECAR
   LCHARG =      F    write CHGCAR
   LVTOT  =      F    write LOCPOT, total local potential
   LVHAR  =      F    write LOCPOT, Hartree potential only
   LELF   =      F    write electronic localiz. function (ELF)
   LORBIT =      0    0 simple, 1 ext, 2 COOP (PROOUT)


 Dipole corrections
   LMONO  =      F    monopole corrections only (constant potential shift)
   LDIPOL =      F    correct potential (dipole corrections)
   IDIPOL =      0    1-x, 2-y, 3-z, 4-all directions 
   EPSILON=  1.0000000 bulk dielectric constant

 Exchange correlation treatment:
   GGA     =    --    GGA type
   LEXCH   =     8    internal setting for exchange type
   VOSKOWN=      0    Vosko Wilk Nusair interpolation
   LHFCALC =     F    Hartree Fock is set to
   LHFONE  =     F    Hartree Fock one center treatment
   AEXX    =    0.0000 exact exchange contribution

 Linear response parameters
   LEPSILON=     F    determine dielectric tensor
   LRPA    =     F    only Hartree local field effects (RPA)
   LNABLA  =     F    use nabla operator in PAW spheres
   LVEL    =     F    velocity operator in full k-point grid
   LINTERFAST=   F  fast interpolation
   KINTER  =     0    interpolate to denser k-point grid
   CSHIFT  =0.1000    complex shift for real part using Kramers Kronig
   OMEGAMAX=  -1.0    maximum frequency
   DEG_THRESHOLD= 0.2000000E-02 threshold for treating states as degnerate
   RTIME   =    0.100 relaxation time in fs

 Orbital magnetization related:
   ORBITALMAG=     F  switch on orbital magnetization
   LCHIMAG   =     F  perturbation theory with respect to B field
   DQ        =  0.001000  dq finite difference perturbation B field



--------------------------------------------------------------------------------------------------------


 Static calculation
 charge density and potential will be updated during run
 non-spin polarized calculation
 RMM-DIIS sequential band-by-band and
  variant of blocked Davidson during initial phase
 perform sub-space diagonalisation
    before iterative eigenvector-optimisation
 modified Broyden-mixing scheme, WC =      100.0
 initial mixing is a Kerker type mixing with AMIX =  0.4000 and BMIX =      1.0000
 Hartree-type preconditioning will be used
 using additional bands            4
 reciprocal scheme for non local part
 use partial core corrections
 calculate Harris-corrections to forces 
   (improved forces if not selfconsistent)
 use gradient corrections 
 use of overlap-Matrix (Vanderbilt PP)
 Gauss-broadening in eV      SIGMA  =   0.20


--------------------------------------------------------------------------------------------------------


  energy-cutoff  :      400.00
  volume of cell :     1092.32
      direct lattice vectors                 reciprocal lattice vectors
    10.100000000  0.000000000  0.000000000     0.099009901  0.000000000  0.000000000
     0.000000000 10.300000000  0.000000000     0.000000000  0.097087379  0.000000000
     0.000000000  0.000000000 10.500000000     0.000000000  0.000000000  0.095238095

  length of vectors
    10.100000000 10.300000000 10.500000000     0.099009901  0.097087379  0.095238095


 
 k-points in units of 2pi/SCALE and weight: Gamma-point only                        
   0.00000000  0.00000000  0.00000000       1.000
 
 k-points in reciprocal lattice and weights: Gamma-point only                        
   0.00000000  0.00000000  0.00000000       1.000
 
 position of ions in fractional coordinates (direct lattice) 
   0.00000000  0.00000000  0.00000000
   0.00000000  0.00000000  0.19047619
 
 position of ions in cartesian coordinates  (Angst):
   0.00000000  0.00000000  0.00000000
   0.00000000  0.00000000  2.00000000
 


--------------------------------------------------------------------------------------------------------


 k-point  1 :   0.0000 0.0000 0.0000  plane waves:   19819

 maximum and minimum number of plane-waves per node :     19819    19819

 maximum number of plane-waves:     19819
 maximum index in each direction: 
   IXMAX=   16   IYMAX=   16   IZMAX=   17
   IXMIN=  -16   IYMIN=  -16   IZMIN=  -17

 WARNING: aliasing errors must be expected set NGX to  66 to avoid them
 WARNING: aliasing errors must be expected set NGY to  66 to avoid them
 WARNING: aliasing errors must be expected set NGZ to  70 to avoid them
 aliasing errors are usually negligible using standard VASP settings
 and one can safely disregard these warnings

 serial   3D FFT for wavefunctions
 parallel 3D FFT for charge:
    minimum data exchange during FFTs selected (reduces bandwidth)


 total amount of memory used by VASP on root node   140193. kBytes
========================================================================

   base      :      30000. kBytes
   nonl-proj :       3171. kBytes
   fftplans  :      37440. kBytes
   grid      :      66720. kBytes
   one-center:          6. kBytes
   wavefun   :       2856. kBytes
 
 Broyden mixing: mesh for mixing (old mesh)
   NGX = 33   NGY = 33   NGZ = 35
  (NGX  =100   NGY  =100   NGZ  =108)
  gives a total of  38115 points

 initial charge density was supplied:
 charge density of overlapping atoms calculated
 number of electron      10.0000000 magnetization 
 keeping initial charge density in first step


--------------------------------------------------------------------------------------------------------


 Maximum index for augmentation-charges         1524 (set IRDMAX)


--------------------------------------------------------------------------------------------------------


 First call to EWALD:  gamma=   0.172
 Maximum number of real-space cells 3x 3x 3
 Maximum number of reciprocal cells 3x 3x 3

 FEWALD executed in parallel
    FEWALD:  cpu time    0.00: real time    0.00


----------------------------------------- Iteration    1(   1)  ---------------------------------------


    POTLOK:  cpu time    1.24: real time    1.24
    SETDIJ:  cpu time    0.00: real time    0.01
     EDDAV:  cpu time    0.65: real time    0.65
       DOS:  cpu time    0.00: real time    0.00
    --------------------------------------------
      LOOP:  cpu time    1.90: real time    1.90

 eigenvalue-minimisations  :    26
 total energy-change (2. order) : 0.5108038E+02  (-0.1958493E+03)
 number of electron      10.0000000 magnetization 
 augmentation part       10.0000000 magnetization 

 Free energy of the ion-electron system (eV)
  ---------------------------------------------------
  alpha Z        PSCENC =         0.40002888
  Ewald energy   TEWEN  =       -22.92003705
  -1/2 Hartree   DENC   =      -468.98012211
  -exchange  EXHF       =         0.00000000
  -V(xc)+E(xc)   XCENC  =        37.10226358
  PAW double counting   =       455.07152327     -457.43959975
  entropy T*S    EENTRO =        -0.07376580
  eigenvalues    EBANDS =       -71.47033314
  atomic energy  EATOM  =       579.39041991
  ---------------------------------------------------
  free energy    TOTEN  =        51.08037778 eV

  energy without entropy =       51.15414359  energy(sigma->0) =       51.11726068


--------------------------------------------------------------------------------------------------------




----------------------------------------- Iteration    1(   2)  ---------------------------------------


     EDDAV:  cpu time    0.79: real time    0.79
       DOS:  cpu time    0.00: real time    0.00
    --------------------------------------------
      LOOP:  cpu time    0.79: real time    0.79

 eigenvalue-minimisations  :    35
 total energy-change (2. order) :-0.5233221E+02  (-0.5183853E+02)
 number of electron      10.0000000 magnetization 
 augmentation part       10.0000000 magnetization 

 Free energy of the ion-electron system (eV)
  ---------------------------------------------------
  alpha Z        PSCENC =         0.40002888
  Ewald energy   TEWEN  =       -22.92003705
  -1/2 Hartree   DENC   =      -468.98012211
  -exchange  EXHF       =         0.00000000
  -V(xc)+E(xc)   XCENC  =        37.10226358
  PAW double counting   =       455.07152327     -457.43959975
  entropy T*S    EENTRO =        -0.00000000
  eigenvalues    EBANDS =      -123.87631305
  atomic energy  EATOM  =       579.39041991
  ---------------------------------------------------
  free energy    TOTEN  =        -1.25183633 eV

  energy without entropy =       -1.25183633  energy(sigma->0) =       -1.25183633


--------------------------------------------------------------------------------------------------------




----------------------------------------- Iteration    1(   3)  ---------------------------------------


     EDDAV:  cpu time    0.66: real time    0.66
       DOS:  cpu time    0.00: real time    0.00
    --------------------------------------------
      LOOP:  cpu time    0.66: real time    0.66

 eigenvalue-minimisations  :    27
 total energy-change (2. order) :-0.7629598E+01  (-0.7629061E+01)
 number of electron      10.0000000 magnetization 
 augmentation part       10.0000000 magnetization 

 Free energy of the ion-electron system (eV)
  ---------------------------------------------------
  alpha Z        PSCENC =         0.40002888
  Ewald energy   TEWEN  =       -22.92003705
  -1/2 Hartree   DENC   =      -468.98012211
  -exchange  EXHF       =         0.00000000
  -V(xc)+E(xc)   XCENC  =        37.10226358
  PAW double counting   =       455.07152327     -457.43959975
  entropy T*S    EENTRO =        -0.00000000
  eigenvalues    EBANDS =      -131.50591135
  atomic energy  EATOM  =       579.39041991
  ---------------------------------------------------
  free energy    TOTEN  =        -8.88143462 eV

  energy without entropy =       -8.88143462  energy(sigma->0) =       -8.88143462


--------------------------------------------------------------------------------------------------------




----------------------------------------- Iteration    1(   4)  ---------------------------------------


     EDDAV:  cpu time    0.75: real time    0.75
       DOS:  cpu time    0.00: real time    0.00
    --------------------------------------------
      LOOP:  cpu time    0.75: real time    0.75

 eigenvalue-minimisations  :    26
 total energy-change (2. order) :-0.7735975E-01  (-0.7735923E-01)
 number of electron      10.0000000 magnetization 
 augmentation part       10.0000000 magnetization 

 Free energy of the ion-electron system (eV)
  ---------------------------------------------------
  alpha Z        PSCENC =         0.40002888
  Ewald energy   TEWEN  =       -22.92003705
  -1/2 Hartree   DENC   =      -468.98012211
  -exchange  EXHF       =         0.00000000
  -V(xc)+E(xc)   XCENC  =        37.10226358
  PAW double counting   =       455.07152327     -457.43959975
  entropy T*S    EENTRO =        -0.00000000
  eigenvalues    EBANDS =      -131.58327110
  atomic energy  EATOM  =       579.39041991
  ---------------------------------------------------
  free energy    TOTEN  =        -8.95879437 eV

  energy without entropy =       -8.95879437  energy(sigma->0) =       -8.95879437


--------------------------------------------------------------------------------------------------------




----------------------------------------- Iteration    1(   5)  ---------------------------------------


     EDDAV:  cpu time    0.74: real time    0.74
       DOS:  cpu time    0.00: real time    0.00
    CHARGE:  cpu time    0.12: real time    0.12
    MIXING:  cpu time    0.04: real time    0.04
    --------------------------------------------
      LOOP:  cpu time    0.90: real time    0.90

 eigenvalue-minimisations  :    26
 total energy-change (2. order) :-0.2188067E-03  (-0.2188066E-03)
 number of electron      10.0000011 magnetization 
 augmentation part        0.7036124 magnetization 

 Broyden mixing:
  rms(total) = 0.10813E+01    rms(broyden)= 0.10804E+01
  rms(prec ) = 0.16793E+01
  weight for this iteration     100.00

 Free energy of the ion-electron system (eV)
  ---------------------------------------------------
  alpha Z        PSCENC =         0.40002888
  Ewald energy   TEWEN  =       -22.92003705
  -1/2 Hartree   DENC   =      -468.98012211
  -exchange  EXHF       =         0.00000000
  -V(xc)+E(xc)   XCENC  =        37.10226358
  PAW double counting   =       455.07152327     -457.43959975
  entropy T*S    EENTRO =        -0.00000000
  eigenvalues    EBANDS =      -131.58348991
  atomic energy  EATOM  =       579.39041991
  ---------------------------------------------------
  free energy    TOTEN  =        -8.95901318 eV

  energy without entropy =       -8.95901318  energy(sigma->0) =       -8.95901318


--------------------------------------------------------------------------------------------------------




----------------------------------------- Iteration    1(   6)  ---------------------------------------


    POTLOK:  cpu time    1.04: real time    1.04
    SETDIJ:  cpu time    0.01: real time    0.01
    EDDIAG:  cpu time    0.10: real time    0.10
  RMM-DIIS:  cpu time    0.42: real time    0.42
    ORTHCH:  cpu time    0.00: real time    0.01
       DOS:  cpu time    0.00: real time    0.00
    CHARGE:  cpu time    0.10: real time    0.10
    MIXING:  cpu time    0.04: real time    0.04
    --------------------------------------------
      LOOP:  cpu time    1.71: real time    1.71

 eigenvalue-minimisations  :    20
 total energy-change (2. order) :-0.1133037E+02  (-0.1030481E+01)
 number of electron       9.9999976 magnetization 
 augmentation part       -0.0083512 magnetization 

 Broyden mixing:
  rms(total) = 0.31550E+01    rms(broyden)= 0.31529E+01
  rms(prec ) = 0.47777E+01
  weight for this iteration     100.00

 eigenvalues of (default mixing * dielectric matrix)
  average eigenvalue GAMMA=   0.2524
  0.2524

 Free energy of the ion-electron system (eV)
  ---------------------------------------------------
  alpha Z        PSCENC =         0.40002888
  Ewald energy   TEWEN  =       -22.92003705
  -1/2 Hartree   DENC   =      -492.80670686
  -exchange  EXHF       =         0.00000000
  -V(xc)+E(xc)   XCENC  =        38.25242292
  PAW double counting   =       506.31573091     -508.93066620
  entropy T*S    EENTRO =        -0.00000000
  eigenvalues    EBANDS =      -119.99057249
  atomic energy  EATOM  =       579.39041991
  ---------------------------------------------------
  free energy    TOTEN  =       -20.28938000 eV

  energy without entropy =      -20.28938000  energy(sigma->0) =      -20.28938000


--------------------------------------------------------------------------------------------------------




----------------------------------------- Iteration    1(   7)  ---------------------------------------


    POTLOK:  cpu time    1.00: real time    1.00
    SETDIJ:  cpu time    0.00: real time    0.01
    EDDIAG:  cpu time    0.11: real time    0.11
  RMM-DIIS:  cpu time    0.43: real time    0.43
    ORTHCH:  cpu time    0.00: real time    0.01
       DOS:  cpu time    0.00: real time    0.00
    CHARGE:  cpu time    0.10: real time    0.10
    MIXING:  cpu time    0.04: real time    0.04
    --------------------------------------------
      LOOP:  cpu time    1.69: real time    1.69

 eigenvalue-minimisations  :    20
 total energy-change (2. order) : 0.1377466E+02  (-0.5972441E+00)
 number of electron      10.0000014 magnetization 
 augmentation part        0.5351651 magnetization 

 Broyden mixing:
  rms(total) = 0.39134E+00    rms(broyden)= 0.38173E+00
  rms(prec ) = 0.62287E+00
  weight for this iteration     100.00

 eigenvalues of (default mixing * dielectric matrix)
  average eigenvalue GAMMA=   0.1450
  0.2508  0.0393

 Free energy of the ion-electron system (eV)
  ---------------------------------------------------
  alpha Z        PSCENC =         0.40002888
  Ewald energy   TEWEN  =       -22.92003705
  -1/2 Hartree   DENC   =      -475.80682601
  -exchange  EXHF       =         0.00000000
  -V(xc)+E(xc)   XCENC  =        37.49463560
  PAW double counting   =       476.76228541     -479.18402035
  entropy T*S    EENTRO =        -0.00000000
  eigenvalues    EBANDS =      -122.65120335
  atomic energy  EATOM  =       579.39041991
  ---------------------------------------------------
  free energy    TOTEN  =        -6.51471697 eV

  energy without entropy =       -6.51471697  energy(sigma->0) =       -6.51471697


--------------------------------------------------------------------------------------------------------




----------------------------------------- Iteration    1(   8)  ---------------------------------------


    POTLOK:  cpu time    1.04: real time    1.04
    SETDIJ:  cpu time    0.00: real time    0.01
    EDDIAG:  cpu time    0.13: real time    0.13
  RMM-DIIS:  cpu time    0.58: real time    0.58
    ORTHCH:  cpu time    0.00: real time    0.01
       DOS:  cpu time    0.00: real time    0.00
    CHARGE:  cpu time    0.12: real time    0.12
    MIXING:  cpu time    0.05: real time    0.04
    --------------------------------------------
      LOOP:  cpu time    1.92: real time    1.93

 eigenvalue-minimisations  :    22
 total energy-change (2. order) :-0.3090179E-01  (-0.1232067E-01)
 number of electron      10.0000014 magnetization 
 augmentation part        0.5496748 magnetization 

 Broyden mixing:
  rms(total) = 0.41863E+00    rms(broyden)= 0.41821E+00
  rms(prec ) = 0.68224E+00
  weight for this iteration     100.00

 eigenvalues of (default mixing * dielectric matrix)
  average eigenvalue GAMMA=   0.8733
  2.0041  0.3079  0.3079

 Free energy of the ion-electron system (eV)
  ---------------------------------------------------
  alpha Z        PSCENC =         0.40002888
  Ewald energy   TEWEN  =       -22.92003705
  -1/2 Hartree   DENC   =      -475.78446377
  -exchange  EXHF       =         0.00000000
  -V(xc)+E(xc)   XCENC  =        37.44191413
  PAW double counting   =       476.90117885     -479.31693449
  entropy T*S    EENTRO =        -0.00000000
  eigenvalues    EBANDS =      -122.65772521
  atomic energy  EATOM  =       579.39041991
  ---------------------------------------------------
  free energy    TOTEN  =        -6.54561876 eV

  energy without entropy =       -6.54561876  energy(sigma->0) =       -6.54561876


--------------------------------------------------------------------------------------------------------




----------------------------------------- Iteration    1(   9)  ---------------------------------------


    POTLOK:  cpu time    1.08: real time    1.09
    SETDIJ:  cpu time    0.00: real time    0.01
    EDDIAG:  cpu time    0.12: real time    0.12
  RMM-DIIS:  cpu time    0.44: real time    0.44
    ORTHCH:  cpu time    0.01: real time    0.01
       DOS:  cpu time    0.00: real time    0.00
    CHARGE:  cpu time    0.11: real time    0.11
    MIXING:  cpu time    0.04: real time    0.04
    --------------------------------------------
      LOOP:  cpu time    1.80: real time    1.81

 eigenvalue-minimisations  :    20
 total energy-change (2. order) :-0.1169256E+01  (-0.5446945E-01)
 number of electron       9.9999982 magnetization 
 augmentation part        0.1874872 magnetization 

 Broyden mixing:
  rms(total) = 0.16040E+01    rms(broyden)= 0.16019E+01
  rms(prec ) = 0.24031E+01
  weight for this iteration     100.00

 eigenvalues of (default mixing * dielectric matrix)
  average eigenvalue GAMMA=   0.7486
  2.1070  0.4521  0.2177  0.2177

 Free energy of the ion-electron system (eV)
  ---------------------------------------------------
  alpha Z        PSCENC =         0.40002888
  Ewald energy   TEWEN  =       -22.92003705
  -1/2 Hartree   DENC   =      -482.06498288
  -exchange  EXHF       =         0.00000000
  -V(xc)+E(xc)   XCENC  =        37.70066595
  PAW double counting   =       492.33486734     -494.72466212
  entropy T*S    EENTRO =        -0.00000003
  eigenvalues    EBANDS =      -117.83117449
  atomic energy  EATOM  =       579.39041991
  ---------------------------------------------------
  free energy    TOTEN  =        -7.71487449 eV

  energy without entropy =       -7.71487446  energy(sigma->0) =       -7.71487447


--------------------------------------------------------------------------------------------------------




----------------------------------------- Iteration    1(  10)  ---------------------------------------


    POTLOK:  cpu time    0.96: real time    0.96
    SETDIJ:  cpu time    0.01: real time    0.00
    EDDIAG:  cpu time    0.10: real time    0.10
  RMM-DIIS:  cpu time    0.39: real time    0.39
    ORTHCH:  cpu time    0.00: real time    0.01
       DOS:  cpu time    0.00: real time    0.00
    CHARGE:  cpu time    0.11: real time    0.11
    MIXING:  cpu time    0.04: real time    0.04
    --------------------------------------------
      LOOP:  cpu time    1.61: real time    1.61

 eigenvalue-minimisations  :    19
 total energy-change (2. order) : 0.1058161E+01  (-0.5577678E-02)
 number of electron       9.9999995 magnetization 
 augmentation part        0.3037680 magnetization 

 Broyden mixing:
  rms(total) = 0.93050E+00    rms(broyden)= 0.93038E+00
  rms(prec ) = 0.13694E+01
  weight for this iteration     100.00

 eigenvalues of (default mixing * dielectric matrix)
  average eigenvalue GAMMA=   0.9104
  1.7670  1.7670  0.4714  0.2733  0.2733

 Free energy of the ion-electron system (eV)
  ---------------------------------------------------
  alpha Z        PSCENC =         0.40002888
  Ewald energy   TEWEN  =       -22.92003705
  -1/2 Hartree   DENC   =      -479.68377011
  -exchange  EXHF       =         0.00000000
  -V(xc)+E(xc)   XCENC  =        37.59562987
  PAW double counting   =       487.76573131     -490.10491082
  entropy T*S    EENTRO =        -0.00000020
  eigenvalues    EBANDS =      -119.09980505
  atomic energy  EATOM  =       579.39041991
  ---------------------------------------------------
  free energy    TOTEN  =        -6.65671326 eV

  energy without entropy =       -6.65671306  energy(sigma->0) =       -6.65671316


--------------------------------------------------------------------------------------------------------




----------------------------------------- Iteration    1(  11)  ---------------------------------------


    POTLOK:  cpu time    1.04: real time    1.04
    SETDIJ:  cpu time    0.00: real time    0.01
    EDDIAG:  cpu time    0.12: real time    0.12
  RMM-DIIS:  cpu time    0.48: real time    0.47
    ORTHCH:  cpu time    0.00: real time    0.01
       DOS:  cpu time    0.00: real time    0.00
    CHARGE:  cpu time    0.13: real time    0.13
    MIXING:  cpu time    0.05: real time    0.05
    --------------------------------------------
      LOOP:  cpu time    1.83: real time    1.83

 eigenvalue-minimisations  :    18
 total energy-change (2. order) : 0.3378926E+00  (-0.1076140E-01)
 number of electron      10.0000002 magnetization 
 augmentation part        0.3850688 magnetization 

 Broyden mixing:
  rms(total) = 0.48644E+00    rms(broyden)= 0.48590E+00
  rms(prec ) = 0.70439E+00
  weight for this iteration     100.00

 eigenvalues of (default mixing * dielectric matrix)
  average eigenvalue GAMMA=   1.0647
  3.0760  1.1177  1.1177  0.5366  0.2701  0.2701

 Free energy of the ion-electron system (eV)
  ---------------------------------------------------
  alpha Z        PSCENC =         0.40002888
  Ewald energy   TEWEN  =       -22.92003705
  -1/2 Hartree   DENC   =      -477.55552668
  -exchange  EXHF       =         0.00000000
  -V(xc)+E(xc)   XCENC  =        37.41891601
  PAW double counting   =       481.44025324     -483.69365488
  entropy T*S    EENTRO =        -0.00000009
  eigenvalues    EBANDS =      -120.79922004
  atomic energy  EATOM  =       579.39041991
  ---------------------------------------------------
  free energy    TOTEN  =        -6.31882069 eV

  energy without entropy =       -6.31882060  energy(sigma->0) =       -6.31882064


--------------------------------------------------------------------------------------------------------




----------------------------------------- Iteration    1(  12)  ---------------------------------------


    POTLOK:  cpu time    1.07: real time    1.07
    SETDIJ:  cpu time    0.00: real time    0.00
    EDDIAG:  cpu time    0.10: real time    0.10
  RMM-DIIS:  cpu time    0.38: real time    0.38
    ORTHCH:  cpu time    0.00: real time    0.01
       DOS:  cpu time    0.00: real time    0.00
    CHARGE:  cpu time    0.11: real time    0.11
    MIXING:  cpu time    0.05: real time    0.05
    --------------------------------------------
      LOOP:  cpu time    1.72: real time    1.72

 eigenvalue-minimisations  :    19
 total energy-change (2. order) : 0.8260453E-01  (-0.6501851E-02)
 number of electron      10.0000005 magnetization 
 augmentation part        0.4285583 magnetization 

 Broyden mixing:
  rms(total) = 0.25365E+00    rms(broyden)= 0.25327E+00
  rms(prec ) = 0.36577E+00
  weight for this iteration     100.00

 eigenvalues of (default mixing * dielectric matrix)
  average eigenvalue GAMMA=   1.2406
  2.6162  2.0658  2.0658  0.8593  0.5364  0.2705  0.2705

 Free energy of the ion-electron system (eV)
  ---------------------------------------------------
  alpha Z        PSCENC =         0.40002888
  Ewald energy   TEWEN  =       -22.92003705
  -1/2 Hartree   DENC   =      -476.15883888
  -exchange  EXHF       =         0.00000000
  -V(xc)+E(xc)   XCENC  =        37.29102098
  PAW double counting   =       476.68314726     -478.88249368
  entropy T*S    EENTRO =        -0.00000003
  eigenvalues    EBANDS =      -122.03946354
  atomic energy  EATOM  =       579.39041991
  ---------------------------------------------------
  free energy    TOTEN  =        -6.23621616 eV

  energy without entropy =       -6.23621613  energy(sigma->0) =       -6.23621614


--------------------------------------------------------------------------------------------------------




----------------------------------------- Iteration    1(  13)  ---------------------------------------


    POTLOK:  cpu time    0.98: real time    0.99
    SETDIJ:  cpu time    0.00: real time    0.01
    EDDIAG:  cpu time    0.12: real time    0.11
  RMM-DIIS:  cpu time    0.42: real time    0.42
    ORTHCH:  cpu time    0.01: real time    0.01
       DOS:  cpu time    0.00: real time    0.00
    CHARGE:  cpu time    0.12: real time    0.12
    MIXING:  cpu time    0.06: real time    0.06
    --------------------------------------------
      LOOP:  cpu time    1.70: real time    1.71

 eigenvalue-minimisations  :    19
 total energy-change (2. order) : 0.1901380E-01  (-0.1772680E-02)
 number of electron      10.0000007 magnetization 
 augmentation part        0.4560126 magnetization 

 Broyden mixing:
  rms(total) = 0.11083E+00    rms(broyden)= 0.11051E+00
  rms(prec ) = 0.15464E+00
  weight for this iteration     100.00

 eigenvalues of (default mixing * dielectric matrix)
  average eigenvalue GAMMA=   1.4230
  3.2662  3.2662  1.4324  1.4324  0.9092  0.5369  0.2705  0.2705

 Free energy of the ion-electron system (eV)
  ---------------------------------------------------
  alpha Z        PSCENC =         0.40002888
  Ewald energy   TEWEN  =       -22.92003705
  -1/2 Hartree   DENC   =      -475.49464472
  -exchange  EXHF       =         0.00000000
  -V(xc)+E(xc)   XCENC  =        37.24088799
  PAW double counting   =       473.99396038     -476.19666535
  entropy T*S    EENTRO =        -0.00000001
  eigenvalues    EBANDS =      -122.63115239
  atomic energy  EATOM  =       579.39041991
  ---------------------------------------------------
  free energy    TOTEN  =        -6.21720236 eV

  energy without entropy =       -6.21720235  energy(sigma->0) =       -6.21720236


--------------------------------------------------------------------------------------------------------




----------------------------------------- Iteration    1(  14)  ---------------------------------------


    POTLOK:  cpu time    1.04: real time    1.05
    SETDIJ:  cpu time    0.00: real time    0.01
    EDDIAG:  cpu time    0.12: real time    0.11
  RMM-DIIS:  cpu time    0.50: real time    0.51
    ORTHCH:  cpu time    0.01: real time    0.01
       DOS:  cpu time    0.00: real time    0.00
    CHARGE:  cpu time    0.14: real time    0.14
    MIXING:  cpu time    0.07: real time    0.07
    --------------------------------------------
      LOOP:  cpu time    1.88: real time    1.88

 eigenvalue-minimisations  :    19
 total energy-change (2. order) : 0.2441811E-02  (-0.1997242E-02)
 number of electron      10.0000008 magnetization 
 augmentation part        0.4789125 magnetization 

 Broyden mixing:
  rms(total) = 0.17124E-01    rms(broyden)= 0.16093E-01
  rms(prec ) = 0.29658E-01
  weight for this iteration     100.00

 eigenvalues of (default mixing * dielectric matrix)
  average eigenvalue GAMMA=   1.4014
  3.8871  2.2811  1.5686  1.5686  1.3365  0.8936  0.5364  0.2705  0.2705

 Free energy of the ion-electron system (eV)
  ---------------------------------------------------
  alpha Z        PSCENC =         0.40002888
  Ewald energy   TEWEN  =       -22.92003705
  -1/2 Hartree   DENC   =      -474.69536538
  -exchange  EXHF       =         0.00000000
  -V(xc)+E(xc)   XCENC  =        37.17552374
  PAW double counting   =       469.90179295     -472.11107874
  entropy T*S    EENTRO =        -0.00000000
  eigenvalues    EBANDS =      -123.35604485
  atomic energy  EATOM  =       579.39041991
  ---------------------------------------------------
  free energy    TOTEN  =        -6.21476055 eV

  energy without entropy =       -6.21476055  energy(sigma->0) =       -6.21476055


--------------------------------------------------------------------------------------------------------




----------------------------------------- Iteration    1(  15)  ---------------------------------------


    POTLOK:  cpu time    1.16: real time    1.15
    SETDIJ:  cpu time    0.00: real time    0.01
    EDDIAG:  cpu time    0.13: real time    0.13
  RMM-DIIS:  cpu time    0.52: real time    0.52
    ORTHCH:  cpu time    0.01: real time    0.01
       DOS:  cpu time    0.00: real time    0.00
    CHARGE:  cpu time    0.12: real time    0.13
    MIXING:  cpu time    0.06: real time    0.06
    --------------------------------------------
      LOOP:  cpu time    2.00: real time    2.00

 eigenvalue-minimisations  :    19
 total energy-change (2. order) :-0.3464673E-02  (-0.4643732E-03)
 number of electron      10.0000008 magnetization 
 augmentation part        0.4774615 magnetization 

 Broyden mixing:
  rms(total) = 0.11956E-01    rms(broyden)= 0.11934E-01
  rms(prec ) = 0.14994E-01
  weight for this iteration     100.00

 eigenvalues of (default mixing * dielectric matrix)
  average eigenvalue GAMMA=   1.6132
  5.7905  2.0618  2.0618  1.6950  1.6950  0.2705  0.2705  0.5360  0.8756  0.8756

 Free energy of the ion-electron system (eV)
  ---------------------------------------------------
  alpha Z        PSCENC =         0.40002888
  Ewald energy   TEWEN  =       -22.92003705
  -1/2 Hartree   DENC   =      -474.41987232
  -exchange  EXHF       =         0.00000000
  -V(xc)+E(xc)   XCENC  =        37.14018595
  PAW double counting   =       468.46045916     -470.66060894
  entropy T*S    EENTRO =        -0.00000001
  eigenvalues    EBANDS =      -123.60880081
  atomic energy  EATOM  =       579.39041991
  ---------------------------------------------------
  free energy    TOTEN  =        -6.21822523 eV

  energy without entropy =       -6.21822522  energy(sigma->0) =       -6.21822522


--------------------------------------------------------------------------------------------------------




----------------------------------------- Iteration    1(  16)  ---------------------------------------


    POTLOK:  cpu time    1.00: real time    1.00
    SETDIJ:  cpu time    0.00: real time    0.01
    EDDIAG:  cpu time    0.11: real time    0.11
  RMM-DIIS:  cpu time    0.40: real time    0.40
    ORTHCH:  cpu time    0.00: real time    0.01
       DOS:  cpu time    0.00: real time    0.00
    CHARGE:  cpu time    0.11: real time    0.11
    MIXING:  cpu time    0.06: real time    0.06
    --------------------------------------------
      LOOP:  cpu time    1.70: real time    1.70

 eigenvalue-minimisations  :    19
 total energy-change (2. order) :-0.2307666E-02  (-0.1768526E-03)
 number of electron      10.0000008 magnetization 
 augmentation part        0.4809409 magnetization 

 Broyden mixing:
  rms(total) = 0.26090E-01    rms(broyden)= 0.26077E-01
  rms(prec ) = 0.34296E-01
  weight for this iteration     100.00

 eigenvalues of (default mixing * dielectric matrix)
  average eigenvalue GAMMA=   1.6361
  5.5796  2.6327  2.6327  1.5981  1.5981  0.2705  0.2705  0.5362  0.9899  0.9899
  0.8990

 Free energy of the ion-electron system (eV)
  ---------------------------------------------------
  alpha Z        PSCENC =         0.40002888
  Ewald energy   TEWEN  =       -22.92003705
  -1/2 Hartree   DENC   =      -474.20599885
  -exchange  EXHF       =         0.00000000
  -V(xc)+E(xc)   XCENC  =        37.12068542
  PAW double counting   =       468.12409371     -470.31573474
  entropy T*S    EENTRO =        -0.00000001
  eigenvalues    EBANDS =      -123.81399016
  atomic energy  EATOM  =       579.39041991
  ---------------------------------------------------
  free energy    TOTEN  =        -6.22053289 eV

  energy without entropy =       -6.22053289  energy(sigma->0) =       -6.22053289


--------------------------------------------------------------------------------------------------------




----------------------------------------- Iteration    1(  17)  ---------------------------------------


    POTLOK:  cpu time    1.02: real time    1.03
    SETDIJ:  cpu time    0.01: real time    0.01
    EDDIAG:  cpu time    0.11: real time    0.11
  RMM-DIIS:  cpu time    0.40: real time    0.40
    ORTHCH:  cpu time    0.01: real time    0.01
       DOS:  cpu time    0.00: real time    0.00
    CHARGE:  cpu time    0.11: real time    0.11
    MIXING:  cpu time    0.06: real time    0.06
    --------------------------------------------
      LOOP:  cpu time    1.72: real time    1.72

 eigenvalue-minimisations  :    19
 total energy-change (2. order) :-0.2173440E-02  (-0.6373493E-04)
 number of electron      10.0000008 magnetization 
 augmentation part        0.4859243 magnetization 

 Broyden mixing:
  rms(total) = 0.47575E-01    rms(broyden)= 0.47549E-01
  rms(prec ) = 0.70538E-01
  weight for this iteration     100.00

 eigenvalues of (default mixing * dielectric matrix)
  average eigenvalue GAMMA=   1.8370
  5.3058  5.3058  2.0328  2.0328  1.7457  1.7457  0.2705  0.2705  0.5362  0.9746
  0.9746  0.8484

 Free energy of the ion-electron system (eV)
  ---------------------------------------------------
  alpha Z        PSCENC =         0.40002888
  Ewald energy   TEWEN  =       -22.92003705
  -1/2 Hartree   DENC   =      -474.27775901
  -exchange  EXHF       =         0.00000000
  -V(xc)+E(xc)   XCENC  =        37.13441423
  PAW double counting   =       469.27601600     -471.47399419
  entropy T*S    EENTRO =        -0.00000000
  eigenvalues    EBANDS =      -123.75179510
  atomic energy  EATOM  =       579.39041991
  ---------------------------------------------------
  free energy    TOTEN  =        -6.22270633 eV

  energy without entropy =       -6.22270633  energy(sigma->0) =       -6.22270633


--------------------------------------------------------------------------------------------------------




----------------------------------------- Iteration    1(  18)  ---------------------------------------


    POTLOK:  cpu time    1.10: real time    1.10
    SETDIJ:  cpu time    0.00: real time    0.01
    EDDIAG:  cpu time    0.12: real time    0.12
  RMM-DIIS:  cpu time    0.44: real time    0.44
    ORTHCH:  cpu time    0.00: real time    0.01
       DOS:  cpu time    0.00: real time    0.00
    CHARGE:  cpu time    0.10: real time    0.10
    MIXING:  cpu time    0.07: real time    0.07
    --------------------------------------------
      LOOP:  cpu time    1.85: real time    2.79

 eigenvalue-minimisations  :    19
 total energy-change (2. order) : 0.1259910E-02  (-0.1395824E-03)
 number of electron      10.0000008 magnetization 
 augmentation part        0.4794833 magnetization 

 Broyden mixing:
  rms(total) = 0.14836E-01    rms(broyden)= 0.14803E-01
  rms(prec ) = 0.23122E-01
  weight for this iteration     100.00

 eigenvalues of (default mixing * dielectric matrix)
  average eigenvalue GAMMA=   1.9107
  5.6796  5.6796  2.3571  2.3571  1.6490  1.6490  1.4615  0.2705  0.2705  0.5362
  1.1134  0.8822  0.9339

 Free energy of the ion-electron system (eV)
  ---------------------------------------------------
  alpha Z        PSCENC =         0.40002888
  Ewald energy   TEWEN  =       -22.92003705
  -1/2 Hartree   DENC   =      -474.55175581
  -exchange  EXHF       =         0.00000000
  -V(xc)+E(xc)   XCENC  =        37.15461706
  PAW double counting   =       470.12350063     -472.32616641
  entropy T*S    EENTRO =        -0.00000000
  eigenvalues    EBANDS =      -123.49205362
  atomic energy  EATOM  =       579.39041991
  ---------------------------------------------------
  free energy    TOTEN  =        -6.22144642 eV

  energy without entropy =       -6.22144642  energy(sigma->0) =       -6.22144642


--------------------------------------------------------------------------------------------------------




----------------------------------------- Iteration    1(  19)  ---------------------------------------


    POTLOK:  cpu time    0.99: real time    0.99
    SETDIJ:  cpu time    0.00: real time    0.00
    EDDIAG:  cpu time    0.10: real time    0.10
  RMM-DIIS:  cpu time    0.35: real time    0.35
    ORTHCH:  cpu time    0.01: real time    0.01
       DOS:  cpu time    0.00: real time    0.00
    CHARGE:  cpu time    0.10: real time    0.11
    MIXING:  cpu time    0.07: real time    0.07
    --------------------------------------------
      LOOP:  cpu time    1.64: real time    1.64

 eigenvalue-minimisations  :    17
 total energy-change (2. order) :-0.2964010E-03  (-0.3264217E-04)
 number of electron      10.0000008 magnetization 
 augmentation part        0.4753204 magnetization 

 Broyden mixing:
  rms(total) = 0.75050E-02    rms(broyden)= 0.74246E-02
  rms(prec ) = 0.98577E-02
  weight for this iteration     100.00

 eigenvalues of (default mixing * dielectric matrix)
  average eigenvalue GAMMA=   1.9331
  7.0928  3.8570  3.1420  3.1420  1.6782  1.6782  0.2705  0.2705  1.2973  1.2973
  0.5362  0.9550  0.9550  0.8913

 Free energy of the ion-electron system (eV)
  ---------------------------------------------------
  alpha Z        PSCENC =         0.40002888
  Ewald energy   TEWEN  =       -22.92003705
  -1/2 Hartree   DENC   =      -474.65730351
  -exchange  EXHF       =         0.00000000
  -V(xc)+E(xc)   XCENC  =        37.16030810
  PAW double counting   =       470.29110199     -472.49382121
  entropy T*S    EENTRO =        -0.00000001
  eigenvalues    EBANDS =      -123.39243993
  atomic energy  EATOM  =       579.39041991
  ---------------------------------------------------
  free energy    TOTEN  =        -6.22174282 eV

  energy without entropy =       -6.22174282  energy(sigma->0) =       -6.22174282


--------------------------------------------------------------------------------------------------------




----------------------------------------- Iteration    1(  20)  ---------------------------------------


    POTLOK:  cpu time    1.04: real time    1.04
    SETDIJ:  cpu time    0.01: real time    0.01
    EDDIAG:  cpu time    0.12: real time    0.13
  RMM-DIIS:  cpu time    0.32: real time    0.32
    ORTHCH:  cpu time    0.01: real time    0.01
       DOS:  cpu time    0.00: real time    0.00
    CHARGE:  cpu time    0.13: real time    0.13
    MIXING:  cpu time    0.10: real time    0.10
    --------------------------------------------
      LOOP:  cpu time    1.73: real time    1.73

 eigenvalue-minimisations  :    11
 total energy-change (2. order) :-0.1827940E-03  (-0.3670891E-05)
 number of electron      10.0000008 magnetization 
 augmentation part        0.4749791 magnetization 

 Broyden mixing:
  rms(total) = 0.84030E-02    rms(broyden)= 0.83965E-02
  rms(prec ) = 0.11954E-01
  weight for this iteration     100.00

 eigenvalues of (default mixing * dielectric matrix)
  average eigenvalue GAMMA=   1.9055
  7.2016  5.1096  2.4780  2.4780  1.7242  1.7242  1.5582  1.5582  0.2705  0.2705
  0.5362  0.9493  0.9493  0.9062  0.8683

 Free energy of the ion-electron system (eV)
  ---------------------------------------------------
  alpha Z        PSCENC =         0.40002888
  Ewald energy   TEWEN  =       -22.92003705
  -1/2 Hartree   DENC   =      -474.62485735
  -exchange  EXHF       =         0.00000000
  -V(xc)+E(xc)   XCENC  =        37.15655875
  PAW double counting   =       470.05295183     -472.25373891
  entropy T*S    EENTRO =        -0.00000001
  eigenvalues    EBANDS =      -123.42325167
  atomic energy  EATOM  =       579.39041991
  ---------------------------------------------------
  free energy    TOTEN  =        -6.22192562 eV

  energy without entropy =       -6.22192561  energy(sigma->0) =       -6.22192561


--------------------------------------------------------------------------------------------------------




----------------------------------------- Iteration    1(  21)  ---------------------------------------


    POTLOK:  cpu time    1.15: real time    1.15
    SETDIJ:  cpu time    0.01: real time    0.01
    EDDIAG:  cpu time    0.12: real time    0.12
  RMM-DIIS:  cpu time    0.30: real time    0.31
    ORTHCH:  cpu time    0.01: real time    0.01
       DOS:  cpu time    0.00: real time    0.00
    --------------------------------------------
      LOOP:  cpu time    1.59: real time    1.59

 eigenvalue-minimisations  :    11
 total energy-change (2. order) :-0.5076487E-04  (-0.4073491E-05)
 number of electron      10.0000008 magnetization 
 augmentation part        0.4749791 magnetization 

 Free energy of the ion-electron system (eV)
  ---------------------------------------------------
  alpha Z        PSCENC =         0.40002888
  Ewald energy   TEWEN  =       -22.92003705
  -1/2 Hartree   DENC   =      -474.58818390
  -exchange  EXHF       =         0.00000000
  -V(xc)+E(xc)   XCENC  =        37.15303422
  PAW double counting   =       469.88771837     -472.08719220
  entropy T*S    EENTRO =        -0.00000001
  eigenvalues    EBANDS =      -123.45776461
  atomic energy  EATOM  =       579.39041991
  ---------------------------------------------------
  free energy    TOTEN  =        -6.22197638 eV

  energy without entropy =       -6.22197638  energy(sigma->0) =       -6.22197638


--------------------------------------------------------------------------------------------------------




 average (electrostatic) potential at core
  the test charge radii are     0.6991  0.7215
  (the norm of the test charge is              1.0000)
       1 -64.2719       2 -81.7412
 
 
 
 E-fermi :  -6.9147     XC(G=0):  -0.7384     alpha+bet : -0.1603


 k-point   1 :       0.0000    0.0000    0.0000
  band No.  band energies     occupation 
      1     -22.5295      2.00000
      2     -15.0095      2.00000
      3      -8.6566      2.00000
      4      -7.7671      2.00000
      5      -7.7662      2.00000
      6      -6.0628      0.00000
      7      -6.0622      0.00000
      8      -3.8442      0.00000
      9      -0.3528      0.00000


--------------------------------------------------------------------------------------------------------


 soft charge-density along one line, spin component           1
         0         1         2         3         4         5         6         7         8         9
 total charge-density along one line
 
 pseudopotential strength for first ion, spin component:           1
 10.538  14.022   0.000   0.004  -0.000  -0.000  -0.013   0.000
 14.022  18.657   0.000   0.006  -0.000  -0.000  -0.016   0.000
  0.000   0.000  -4.712   0.000  -0.000   9.250  -0.000   0.000
  0.004   0.006   0.000  -4.695   0.000  -0.000   9.216  -0.000
 -0.000  -0.000  -0.000   0.000  -4.712   0.000  -0.000   9.250
 -0.000  -0.000   9.250  -0.000   0.000 -20.314   0.000  -0.000
 -0.013  -0.016  -0.000   9.216  -0.000   0.000 -20.244   0.000
  0.000   0.000   0.000  -0.000   9.250  -0.000   0.000 -20.314
 total augmentation occupancy for first ion, spin component:           1
  1.502   0.133   0.000   0.125   0.000   0.000   0.007   0.000
  0.133   0.125   0.000  -0.252   0.000   0.000  -0.010   0.000
  0.000   0.000   0.500   0.000   0.000   0.007   0.000   0.000
  0.125  -0.252   0.000   0.850   0.000   0.000   0.024   0.000
  0.000   0.000   0.000   0.000   0.501   0.000   0.000   0.007
  0.000   0.000   0.007   0.000   0.000   0.000   0.000   0.000
  0.007  -0.010   0.000   0.024   0.000   0.000   0.001   0.000
  0.000   0.000   0.000   0.000   0.007   0.000   0.000   0.000


------------------------ aborting loop because EDIFF is reached ----------------------------------------


    CHARGE:  cpu time    0.12: real time    0.12
    FORLOC:  cpu time    0.09: real time    0.08
    FORNL :  cpu time    0.07: real time    0.07
    STRESS:  cpu time    0.37: real time    0.37
    FORCOR:  cpu time    1.31: real time    1.32
    FORHAR:  cpu time    0.32: real time    0.32
    MIXING:  cpu time    0.09: real time    0.09

  FORCE on cell =-STRESS in cart. coord.  units (eV):
  Direction    XX          YY          ZZ          XY          YZ          ZX
  --------------------------------------------------------------------------------------
  Alpha Z     0.40003     0.40003     0.40003
  Ewald     -63.59865   -67.39304   108.07165     0.00000     0.00000    -0.00000
  Hartree   123.13904   119.45185   231.46903    -0.00000    -0.00000    -0.00000
  E(xc)     -40.67401   -40.67345   -40.03460     0.00000    -0.00000    -0.00000
  Local    -188.28926  -180.79893  -469.81801     0.00000     0.00000    -0.00000
  n-local   -13.71109   -13.70452   -14.87515     0.00000     0.00000    -0.00000
  augment     5.90315     5.90313     5.31047     0.00000    -0.00000     0.00000
  Kinetic   175.79330   175.80069   162.59072     0.00000    -0.00000    -0.00000
  Fock        0.00000     0.00000     0.00000     0.00000     0.00000     0.00000
  -------------------------------------------------------------------------------------
  Total      -1.03750    -1.01425   -16.88587     0.00000     0.00000     0.00000
  in kB      -1.52177    -1.48767   -24.76772     0.00000     0.00000     0.00000
  external pressure =       -9.26 kB  Pullay stress =        0.00 kB


 VOLUME and BASIS-vectors are now :
 -----------------------------------------------------------------------------
  energy-cutoff  :      400.00
  volume of cell :     1092.32
      direct lattice vectors                 reciprocal lattice vectors
    10.100000000  0.000000000  0.000000000     0.099009901  0.000000000  0.000000000
     0.000000000 10.300000000  0.000000000     0.000000000  0.097087379  0.000000000
     0.000000000  0.000000000 10.500000000     0.000000000  0.000000000  0.095238095

  length of vectors
    10.100000000 10.300000000 10.500000000     0.099009901  0.097087379  0.095238095


 FORCES acting on ions
    electron-ion (+dipol)            ewald-force                    non-local-force                 convergence-correction
 -----------------------------------------------------------------------------------------------
   0.493E-14 0.319E-14 0.787E+02   -.427E-16 0.981E-17 -.837E+02   0.000E+00 0.000E+00 0.129E+02   0.363E-14 0.620E-14 0.103E+00
   0.864E-15 0.108E-13 -.745E+02   0.742E-16 0.457E-17 0.837E+02   0.000E+00 0.000E+00 -.174E+02   0.107E-14 0.118E-13 0.167E+00
 -----------------------------------------------------------------------------------------------
   0.580E-14 0.140E-13 0.422E+01   0.315E-16 0.144E-16 0.000E+00   0.000E+00 0.000E+00 -.448E+01   0.470E-14 0.180E-13 0.270E+00
 
 
 POSITION                                       TOTAL-FORCE (eV/Angst)
 -----------------------------------------------------------------------------------
      0.00000      0.00000      0.00000         0.000000      0.000000      7.988233
      0.00000      0.00000      2.00000         0.000000      0.000000     -7.988233
 -----------------------------------------------------------------------------------
    total drift:                                0.000000      0.000000      0.008542


--------------------------------------------------------------------------------------------------------



  FREE ENERGIE OF THE ION-ELECTRON SYSTEM (eV)
  ---------------------------------------------------
  free  energy   TOTEN  =        -6.22197638 eV

  energy  without entropy=       -6.22197638  energy(sigma->0) =       -6.22197638
 


--------------------------------------------------------------------------------------------------------


    POTLOK:  cpu time    1.14: real time    1.14


--------------------------------------------------------------------------------------------------------


     LOOP+:  cpu time   36.60: real time   37.58
    4ORBIT:  cpu time    0.00: real time    0.00

 total amount of memory used by VASP on root node   140193. kBytes
========================================================================

   base      :      30000. kBytes
   nonl-proj :       3171. kBytes
   fftplans  :      37440. kBytes
   grid      :      66720. kBytes
   one-center:          6. kBytes
   wavefun   :       2856. kBytes
 
  
  
 General timing and accounting informations for this job:
 ========================================================
  
                  Total CPU time used (sec):       39.120
                            User time (sec):       38.852
                          System time (sec):        0.268
                         Elapsed time (sec):       40.101
  
                   Maximum memory used (kb):      234616.
                   Average memory used (kb):           0.
  
                          Minor page faults:        50021
                          Major page faults:            0
                 Voluntary context switches:            2
