 vasp.5.3.3 18Dez12 (build Sep  7 2015 22:32:56) complex                        
  
 executed on             LinuxIFC date 2002.02.05  01:01:23
 running on    1 total cores
 distrk:  each k-point on    1 cores,    1 groups
 distr:  one band on NCORES_PER_BAND=   1 cores,    1 groups


--------------------------------------------------------------------------------------------------------


 INCAR:
 POTCAR:    PAW_PBE C 08Apr2002                   
 POTCAR:    PAW_PBE O 08Apr2002                   
 POTCAR:    PAW_PBE C 08Apr2002                   
   VRHFIN =C: s2p2                                                              
   LEXCH  = PE                                                                  
   EATOM  =   147.1560 eV,   10.8157 Ry                                         
                                                                                
   TITEL  = PAW_PBE C 08Apr2002                                                 
   LULTRA =        F    use ultrasoft PP ?                                      
   IUNSCR =        1    unscreen: 0-lin 1-nonlin 2-no                           
   RPACOR =    1.200    partial core radius                                     
   POMASS =   12.011; ZVAL   =    4.000    mass and valenz                      
   RCORE  =    1.500    outmost cutoff radius                                   
   RWIGS  =    1.630; RWIGS  =    0.863    wigner-seitz radius (au A)           
   ENMAX  =  400.000; ENMIN  =  300.000 eV                                      
   ICORE  =        2    local potential                                         
   LCOR   =        T    correct aug charges                                     
   LPAW   =        T    paw PP                                                  
   EAUG   =  644.873                                                            
   DEXC   =    0.000                                                            
   RMAX   =    1.529    core radius for proj-oper                               
   RAUG   =    1.300    factor for augmentation sphere                          
   RDEP   =    1.501    radius for radial grids                                 
   RDEPT  =    1.300    core radius for aug-charge                              
                                                                                
   Atomic configuration                                                         
    4 entries                                                                   
     n  l   j            E        occ.                                          
     1  0  0.50      -273.3789   2.0000                                         
     2  0  0.50       -13.7508   2.0000                                         
     2  1  0.50        -5.2854   2.0000                                         
     3  2  1.50        -5.4423   0.0000                                         
   Description                                                                  
     l       E           TYP  RCUT    TYP  RCUT                                 
     0    -13.7508458     23  1.200                                             
     0     -8.2022199     23  1.200                                             
     1     -5.2854383     23  1.500                                             
     1     34.0145650     23  1.500                                             
     2     -5.4423304      7  1.500                                             
  local pseudopotential read in
  partial core-charges read in
  partial kinetic energy density read in
  atomic valenz-charges read in
  non local Contribution for L=           0  read in
    real space projection operators read in
  non local Contribution for L=           0  read in
    real space projection operators read in
  non local Contribution for L=           1  read in
    real space projection operators read in
  non local Contribution for L=           1  read in
    real space projection operators read in
    PAW grid and wavefunctions read in
 
   number of l-projection  operators is LMAX  =           4
   number of lm-projection operators is LMMAX =           8
 
 POTCAR:    PAW_PBE O 08Apr2002                   
   VRHFIN =O: s2p4                                                              
   LEXCH  = PE                                                                  
   EATOM  =   432.3788 eV,   31.7789 Ry                                         
                                                                                
   TITEL  = PAW_PBE O 08Apr2002                                                 
   LULTRA =        F    use ultrasoft PP ?                                      
   IUNSCR =        1    unscreen: 0-lin 1-nonlin 2-no                           
   RPACOR =    1.200    partial core radius                                     
   POMASS =   16.000; ZVAL   =    6.000    mass and valenz                      
   RCORE  =    1.520    outmost cutoff radius                                   
   RWIGS  =    1.550; RWIGS  =    0.820    wigner-seitz radius (au A)           
   ENMAX  =  400.000; ENMIN  =  300.000 eV                                      
   ICORE  =        2    local potential                                         
   LCOR   =        T    correct aug charges                                     
   LPAW   =        T    paw PP                                                  
   EAUG   =  605.392                                                            
   DEXC   =    0.000                                                            
   RMAX   =    1.553    core radius for proj-oper                               
   RAUG   =    1.300    factor for augmentation sphere                          
   RDEP   =    1.550    radius for radial grids                                 
   RDEPT  =    1.329    core radius for aug-charge                              
                                                                                
   Atomic configuration                                                         
    4 entries                                                                   
     n  l   j            E        occ.                                          
     1  0  0.50      -514.6923   2.0000                                         
     2  0  0.50       -23.9615   2.0000                                         
     2  1  0.50        -9.0305   4.0000                                         
     3  2  1.50        -9.5241   0.0000                                         
   Description                                                                  
     l       E           TYP  RCUT    TYP  RCUT                                 
     0    -23.9615318     23  1.200                                             
     0     -9.5240782     23  1.200                                             
     1     -9.0304911     23  1.520                                             
     1      8.1634956     23  1.520                                             
     2     -9.5240782      7  1.500                                             
  local pseudopotential read in
  partial core-charges read in
  partial kinetic energy density read in
  kinetic energy density of atom read in
  atomic valenz-charges read in
  non local Contribution for L=           0  read in
    real space projection operators read in
  non local Contribution for L=           0  read in
    real space projection operators read in
  non local Contribution for L=           1  read in
    real space projection operators read in
  non local Contribution for L=           1  read in
    real space projection operators read in
    PAW grid and wavefunctions read in
 
   number of l-projection  operators is LMAX  =           4
   number of lm-projection operators is LMMAX =           8
 
  PAW_PBE C 08Apr2002                   :
 energy of atom  1       EATOM= -147.1560
 kinetic energy error for atom=    0.0288 (will be added to EATOM!!)
  PAW_PBE O 08Apr2002                   :
 energy of atom  2       EATOM= -432.3788
 kinetic energy error for atom=    0.1156 (will be added to EATOM!!)
 
 
 POSCAR: CO molecule in a box                    
  positions in cartesian coordinates
  No initial velocities read in
 exchange correlation table for  LEXCH =        8
   RHO(1)=    0.500       N(1)  =     2000
   RHO(2)=  100.500       N(2)  =     4000
 


--------------------------------------------------------------------------------------------------------


 ion  position               nearest neighbor table
   1  0.000  0.000  0.000-
   2  0.000  0.000  0.229-
 
  LATTYP: Found a simple orthorhombic cell.
 ALAT       =    10.1000000000
 B/A-ratio  =     1.0198019802
 C/A-ratio  =     1.0396039604
  
  Lattice vectors:
  
 A1 = (  10.1000000000,   0.0000000000,   0.0000000000)
 A2 = (   0.0000000000,  10.3000000000,   0.0000000000)
 A3 = (   0.0000000000,   0.0000000000,  10.5000000000)


Analysis of symmetry for initial positions (statically):
=====================================================================
 Subroutine PRICEL returns:
 Original cell was already a primitive cell.
 

 Routine SETGRP: Setting up the symmetry group for a 
 simple orthorhombic supercell.


 Subroutine GETGRP returns: Found  4 space group operations
 (whereof  4 operations were pure point group operations)
 out of a pool of  8 trial point group operations.


The static configuration has the point symmetry C_2v.


Analysis of symmetry for dynamics (positions and initial velocities):
=====================================================================
 Subroutine PRICEL returns:
 Original cell was already a primitive cell.
 

 Routine SETGRP: Setting up the symmetry group for a 
 simple orthorhombic supercell.


 Subroutine GETGRP returns: Found  4 space group operations
 (whereof  4 operations were pure point group operations)
 out of a pool of  8 trial point group operations.


The dynamic configuration has the point symmetry C_2v.


Analysis of constrained symmetry for selective dynamics:
=====================================================================
 Subroutine PRICEL returns:
 Original cell was already a primitive cell.
 

 Routine SETGRP: Setting up the symmetry group for a 
 simple orthorhombic supercell.


 Subroutine GETGRP returns: Found  4 space group operations
 (whereof  4 operations were pure point group operations)
 out of a pool of  8 trial point group operations.


The constrained configuration has the point symmetry C_2v.


 irot  :   1
 --------------------------------------------------------------------
 isymop:   1   0   0
           0   1   0
           0   0   1

 gtrans:     0.0000000     0.0000000     0.0000000

 ptrans:     0.0000000     0.0000000     0.0000000
 rotmap:
 (   1->   1)  (   2->   2) 


 irot  :   2
 --------------------------------------------------------------------
 isymop:  -1   0   0
           0  -1   0
           0   0   1

 gtrans:     0.0000000     0.0000000     0.0000000

 ptrans:     0.0000000     0.0000000     0.0000000
 rotmap:
 (   1->   1)  (   2->   2) 


 irot  :   3
 --------------------------------------------------------------------
 isymop:   1   0   0
           0  -1   0
           0   0   1

 gtrans:     0.0000000     0.0000000     0.0000000

 ptrans:     0.0000000     0.0000000     0.0000000
 rotmap:
 (   1->   1)  (   2->   2) 


 irot  :   4
 --------------------------------------------------------------------
 isymop:  -1   0   0
           0   1   0
           0   0   1

 gtrans:     0.0000000     0.0000000     0.0000000

 ptrans:     0.0000000     0.0000000     0.0000000
 rotmap:
 (   1->   1)  (   2->   2) 
 
 
 KPOINTS: Gamma-point only                        

Automatic generation of k-mesh.
Space group operators:
 irot       det(A)        alpha          n_x          n_y          n_z        tau_x        tau_y        tau_z
    1     1.000000     0.000000     1.000000     0.000000     0.000000     0.000000     0.000000     0.000000
    2     1.000000   180.000000     0.000000     0.000000     1.000000     0.000000     0.000000     0.000000
    3    -1.000000   180.000000     0.000000     1.000000     0.000000     0.000000     0.000000     0.000000
    4    -1.000000   180.000000     1.000000     0.000000     0.000000     0.000000     0.000000     0.000000
 
 Subroutine IBZKPT returns following result:
 ===========================================
 
 Found      1 irreducible k-points:
 
 Following reciprocal coordinates:
            Coordinates               Weight
  0.000000  0.000000  0.000000      1.000000
 
 Following cartesian coordinates:
            Coordinates               Weight
  0.000000  0.000000  0.000000      1.000000
 


--------------------------------------------------------------------------------------------------------




 Dimension of arrays:
   k-points           NKPTS =      1   k-points in BZ     NKDIM =      1   number of bands    NBANDS=      9
   number of dos      NEDOS =    301   number of ions     NIONS =      2
   non local maximal  LDIM  =      4   non local SUM 2l+1 LMDIM =      8
   total plane-waves  NPLWV = 135000
   max r-space proj   IRMAX =      1   max aug-charges    IRDMAX=   1803
   dimension x,y,z NGX =    50 NGY =   50 NGZ =   54
   dimension x,y,z NGXF=   100 NGYF=  100 NGZF=  108
   support grid    NGXF=   100 NGYF=  100 NGZF=  108
   ions per type =               1   1
 NGX,Y,Z   is equivalent  to a cutoff of   8.23,  8.07,  8.55 a.u.
 NGXF,Y,Z  is equivalent  to a cutoff of  16.46, 16.14, 17.10 a.u.


 I would recommend the setting:
   dimension x,y,z NGX =    49 NGY =   50 NGZ =   51
 SYSTEM =  Hello World                             
 POSCAR =  CO molecule in a box                    

 Startparameter for this run:
   NWRITE =      2    write-flag & timer
   PREC   = normal    normal or accurate (medium, high low for compatibility)
   ISTART =      0    job   : 0-new  1-cont  2-samecut
   ICHARG =      2    charge: 1-file 2-atom 10-const
   ISPIN  =      1    spin polarized calculation?
   LNONCOLLINEAR =      F non collinear calculations
   LSORBIT =      F    spin-orbit coupling
   INIWAV =      1    electr: 0-lowe 1-rand  2-diag
   LASPH  =      F    aspherical Exc in radial PAW
   METAGGA=      F    non-selfconsistent MetaGGA calc.

 Electronic Relaxation 1
   ENCUT  =  400.0 eV  29.40 Ry    5.42 a.u.  16.47 16.80 17.12*2*pi/ulx,y,z
   ENINI  =  400.0     initial cutoff
   ENAUG  =  644.9 eV  augmentation charge cutoff
   NELM   =     60;   NELMIN=  2; NELMDL=  0     # of ELM steps 
   EDIFF  = 0.1E-03   stopping-criterion for ELM
   LREAL  =      F    real-space projection
   NLSPLINE    = F    spline interpolate recip. space projectors
   LCOMPAT=      F    compatible to vasp.4.4
   GGA_COMPAT  = T    GGA compatible to vasp.4.4-vasp.4.6
   LMAXPAW     = -100 max onsite density
   LMAXMIX     =    2 max onsite mixed and CHGCAR
   VOSKOWN=      0    Vosko Wilk Nusair interpolation
   ROPT   =    0.00000   0.00000
 Ionic relaxation
   EDIFFG = -.1E-01   stopping-criterion for IOM
   NSW    =      0    number of steps for IOM
   NBLOCK =      1;   KBLOCK =      1    inner block; outer block 
   IBRION =     -1    ionic relax: 0-MD 1-quasi-New 2-CG
   NFREE  =      0    steps in history (QN), initial steepest desc. (CG)
   ISIF   =      2    stress and relaxation
   IWAVPR =     10    prediction:  0-non 1-charg 2-wave 3-comb
   ISYM   =      2    0-nonsym 1-usesym 2-fastsym
   LCORR  =      T    Harris-Foulkes like correction to forces

   POTIM  = 0.5000    time-step for ionic-motion
   TEIN   =    0.0    initial temperature
   TEBEG  =    0.0;   TEEND  =   0.0 temperature during run
   SMASS  =  -3.00    Nose mass-parameter (am)
   estimated Nose-frequenzy (Omega)   =  0.10E-29 period in steps =****** mass=  -0.233E-26a.u.
   SCALEE = 1.0000    scale energy and forces
   NPACO  =    256;   APACO  = 16.0  distance and # of slots for P.C.
   PSTRESS=    0.0 pullay stress

  Mass of Ions in am
   POMASS =  12.01 16.00
  Ionic Valenz
   ZVAL   =   4.00  6.00
  Atomic Wigner-Seitz radii
   RWIGS  =  -1.00 -1.00
  virtual crystal weights 
   VCA    =   1.00  1.00
   NELECT =      10.0000    total number of electrons
   NUPDOWN=      -1.0000    fix difference up-down

 DOS related values:
   EMIN   =  10.00;   EMAX   =-10.00  energy-range for DOS
   EFERMI =   0.00
   ISMEAR =     0;   SIGMA  =   0.20  broadening in eV -4-tet -1-fermi 0-gaus

 Electronic relaxation 2 (details)
   IALGO  =     68    algorithm
   LDIAG  =      T    sub-space diagonalisation (order eigenvalues)
   LSUBROT=      T    optimize rotation matrix (better conditioning)
   TURBO    =      0    0=normal 1=particle mesh
   IRESTART =      0    0=no restart 2=restart with 2 vectors
   NREBOOT  =      0    no. of reboots
   NMIN     =      0    reboot dimension
   EREF     =   0.00    reference energy to select bands
   IMIX   =      4    mixing-type and parameters
     AMIX     =   0.40;   BMIX     =  1.00
     AMIX_MAG =   1.60;   BMIX_MAG =  1.00
     AMIN     =   0.10
     WC   =   100.;   INIMIX=   1;  MIXPRE=   1;  MAXMIX= -45

 Intra band minimization:
   WEIMIN = 0.0000     energy-eigenvalue tresh-hold
   EBREAK =  0.28E-05  absolut break condition
   DEPER  =   0.30     relativ break condition  

   TIME   =   0.40     timestep for ELM

  volume/ion in A,a.u.               =     546.16      3685.65
  Fermi-wavevector in a.u.,A,eV,Ry     =   0.342472  0.647179  1.595791  0.117287
  Thomas-Fermi vector in A             =   1.247862
 
 Write flags
   LWAVE  =      F    write WAVECAR
   LCHARG =      F    write CHGCAR
   LVTOT  =      F    write LOCPOT, total local potential
   LVHAR  =      F    write LOCPOT, Hartree potential only
   LELF   =      F    write electronic localiz. function (ELF)
   LORBIT =      0    0 simple, 1 ext, 2 COOP (PROOUT)


 Dipole corrections
   LMONO  =      F    monopole corrections only (constant potential shift)
   LDIPOL =      F    correct potential (dipole corrections)
   IDIPOL =      0    1-x, 2-y, 3-z, 4-all directions 
   EPSILON=  1.0000000 bulk dielectric constant

 Exchange correlation treatment:
   GGA     =    --    GGA type
   LEXCH   =     8    internal setting for exchange type
   VOSKOWN=      0    Vosko Wilk Nusair interpolation
   LHFCALC =     F    Hartree Fock is set to
   LHFONE  =     F    Hartree Fock one center treatment
   AEXX    =    0.0000 exact exchange contribution

 Linear response parameters
   LEPSILON=     F    determine dielectric tensor
   LRPA    =     F    only Hartree local field effects (RPA)
   LNABLA  =     F    use nabla operator in PAW spheres
   LVEL    =     F    velocity operator in full k-point grid
   LINTERFAST=   F  fast interpolation
   KINTER  =     0    interpolate to denser k-point grid
   CSHIFT  =0.1000    complex shift for real part using Kramers Kronig
   OMEGAMAX=  -1.0    maximum frequency
   DEG_THRESHOLD= 0.2000000E-02 threshold for treating states as degnerate
   RTIME   =    0.100 relaxation time in fs

 Orbital magnetization related:
   ORBITALMAG=     F  switch on orbital magnetization
   LCHIMAG   =     F  perturbation theory with respect to B field
   DQ        =  0.001000  dq finite difference perturbation B field



--------------------------------------------------------------------------------------------------------


 Static calculation
 charge density and potential will be updated during run
 non-spin polarized calculation
 RMM-DIIS sequential band-by-band and
  variant of blocked Davidson during initial phase
 perform sub-space diagonalisation
    before iterative eigenvector-optimisation
 modified Broyden-mixing scheme, WC =      100.0
 initial mixing is a Kerker type mixing with AMIX =  0.4000 and BMIX =      1.0000
 Hartree-type preconditioning will be used
 using additional bands            4
 reciprocal scheme for non local part
 use partial core corrections
 calculate Harris-corrections to forces 
   (improved forces if not selfconsistent)
 use gradient corrections 
 use of overlap-Matrix (Vanderbilt PP)
 Gauss-broadening in eV      SIGMA  =   0.20


--------------------------------------------------------------------------------------------------------


  energy-cutoff  :      400.00
  volume of cell :     1092.32
      direct lattice vectors                 reciprocal lattice vectors
    10.100000000  0.000000000  0.000000000     0.099009901  0.000000000  0.000000000
     0.000000000 10.300000000  0.000000000     0.000000000  0.097087379  0.000000000
     0.000000000  0.000000000 10.500000000     0.000000000  0.000000000  0.095238095

  length of vectors
    10.100000000 10.300000000 10.500000000     0.099009901  0.097087379  0.095238095


 
 k-points in units of 2pi/SCALE and weight: Gamma-point only                        
   0.00000000  0.00000000  0.00000000       1.000
 
 k-points in reciprocal lattice and weights: Gamma-point only                        
   0.00000000  0.00000000  0.00000000       1.000
 
 position of ions in fractional coordinates (direct lattice) 
   0.00000000  0.00000000  0.00000000
   0.00000000  0.00000000  0.22857143
 
 position of ions in cartesian coordinates  (Angst):
   0.00000000  0.00000000  0.00000000
   0.00000000  0.00000000  2.40000000
 


--------------------------------------------------------------------------------------------------------


 k-point  1 :   0.0000 0.0000 0.0000  plane waves:   19819

 maximum and minimum number of plane-waves per node :     19819    19819

 maximum number of plane-waves:     19819
 maximum index in each direction: 
   IXMAX=   16   IYMAX=   16   IZMAX=   17
   IXMIN=  -16   IYMIN=  -16   IZMIN=  -17

 WARNING: aliasing errors must be expected set NGX to  66 to avoid them
 WARNING: aliasing errors must be expected set NGY to  66 to avoid them
 WARNING: aliasing errors must be expected set NGZ to  70 to avoid them
 aliasing errors are usually negligible using standard VASP settings
 and one can safely disregard these warnings

 serial   3D FFT for wavefunctions
 parallel 3D FFT for charge:
    minimum data exchange during FFTs selected (reduces bandwidth)


 total amount of memory used by VASP on root node   140193. kBytes
========================================================================

   base      :      30000. kBytes
   nonl-proj :       3171. kBytes
   fftplans  :      37440. kBytes
   grid      :      66720. kBytes
   one-center:          6. kBytes
   wavefun   :       2856. kBytes
 
 Broyden mixing: mesh for mixing (old mesh)
   NGX = 33   NGY = 33   NGZ = 35
  (NGX  =100   NGY  =100   NGZ  =108)
  gives a total of  38115 points

 initial charge density was supplied:
 charge density of overlapping atoms calculated
 number of electron      10.0000000 magnetization 
 keeping initial charge density in first step


--------------------------------------------------------------------------------------------------------


 Maximum index for augmentation-charges         1533 (set IRDMAX)


--------------------------------------------------------------------------------------------------------


 First call to EWALD:  gamma=   0.172
 Maximum number of real-space cells 3x 3x 3
 Maximum number of reciprocal cells 3x 3x 3

 FEWALD executed in parallel
    FEWALD:  cpu time    0.00: real time    0.00


----------------------------------------- Iteration    1(   1)  ---------------------------------------


    POTLOK:  cpu time    1.26: real time    1.26
    SETDIJ:  cpu time    0.00: real time    0.01
     EDDAV:  cpu time    0.84: real time    0.86
       DOS:  cpu time    0.00: real time    0.00
    --------------------------------------------
      LOOP:  cpu time    2.10: real time    2.12

 eigenvalue-minimisations  :    26
 total energy-change (2. order) : 0.5294572E+02  (-0.1925333E+03)
 number of electron      10.0000000 magnetization 
 augmentation part       10.0000000 magnetization 

 Free energy of the ion-electron system (eV)
  ---------------------------------------------------
  alpha Z        PSCENC =         0.40002888
  Ewald energy   TEWEN  =       -50.49858510
  -1/2 Hartree   DENC   =      -442.75493025
  -exchange  EXHF       =         0.00000000
  -V(xc)+E(xc)   XCENC  =        36.84648221
  PAW double counting   =       455.07152327     -457.43959975
  entropy T*S    EENTRO =        -0.00118671
  eigenvalues    EBANDS =       -68.06842989
  atomic energy  EATOM  =       579.39041991
  ---------------------------------------------------
  free energy    TOTEN  =        52.94572257 eV

  energy without entropy =       52.94690928  energy(sigma->0) =       52.94631593


--------------------------------------------------------------------------------------------------------




----------------------------------------- Iteration    1(   2)  ---------------------------------------


     EDDAV:  cpu time    1.08: real time    1.08
       DOS:  cpu time    0.00: real time    0.00
    --------------------------------------------
      LOOP:  cpu time    1.08: real time    1.08

 eigenvalue-minimisations  :    35
 total energy-change (2. order) :-0.4999363E+02  (-0.4986575E+02)
 number of electron      10.0000000 magnetization 
 augmentation part       10.0000000 magnetization 

 Free energy of the ion-electron system (eV)
  ---------------------------------------------------
  alpha Z        PSCENC =         0.40002888
  Ewald energy   TEWEN  =       -50.49858510
  -1/2 Hartree   DENC   =      -442.75493025
  -exchange  EXHF       =         0.00000000
  -V(xc)+E(xc)   XCENC  =        36.84648221
  PAW double counting   =       455.07152327     -457.43959975
  entropy T*S    EENTRO =        -0.00000000
  eigenvalues    EBANDS =      -118.06324719
  atomic energy  EATOM  =       579.39041991
  ---------------------------------------------------
  free energy    TOTEN  =         2.95209198 eV

  energy without entropy =        2.95209198  energy(sigma->0) =        2.95209198


--------------------------------------------------------------------------------------------------------




----------------------------------------- Iteration    1(   3)  ---------------------------------------


     EDDAV:  cpu time    0.81: real time    0.81
       DOS:  cpu time    0.00: real time    0.00
    --------------------------------------------
      LOOP:  cpu time    0.82: real time    0.82

 eigenvalue-minimisations  :    28
 total energy-change (2. order) :-0.1080783E+02  (-0.1080758E+02)
 number of electron      10.0000000 magnetization 
 augmentation part       10.0000000 magnetization 

 Free energy of the ion-electron system (eV)
  ---------------------------------------------------
  alpha Z        PSCENC =         0.40002888
  Ewald energy   TEWEN  =       -50.49858510
  -1/2 Hartree   DENC   =      -442.75493025
  -exchange  EXHF       =         0.00000000
  -V(xc)+E(xc)   XCENC  =        36.84648221
  PAW double counting   =       455.07152327     -457.43959975
  entropy T*S    EENTRO =        -0.00000000
  eigenvalues    EBANDS =      -128.87107909
  atomic energy  EATOM  =       579.39041991
  ---------------------------------------------------
  free energy    TOTEN  =        -7.85573991 eV

  energy without entropy =       -7.85573991  energy(sigma->0) =       -7.85573991


--------------------------------------------------------------------------------------------------------




----------------------------------------- Iteration    1(   4)  ---------------------------------------


     EDDAV:  cpu time    0.60: real time    0.61
       DOS:  cpu time    0.00: real time    0.00
    --------------------------------------------
      LOOP:  cpu time    0.60: real time    0.61

 eigenvalue-minimisations  :    18
 total energy-change (2. order) :-0.1394367E+00  (-0.1394360E+00)
 number of electron      10.0000000 magnetization 
 augmentation part       10.0000000 magnetization 

 Free energy of the ion-electron system (eV)
  ---------------------------------------------------
  alpha Z        PSCENC =         0.40002888
  Ewald energy   TEWEN  =       -50.49858510
  -1/2 Hartree   DENC   =      -442.75493025
  -exchange  EXHF       =         0.00000000
  -V(xc)+E(xc)   XCENC  =        36.84648221
  PAW double counting   =       455.07152327     -457.43959975
  entropy T*S    EENTRO =        -0.00000000
  eigenvalues    EBANDS =      -129.01051576
  atomic energy  EATOM  =       579.39041991
  ---------------------------------------------------
  free energy    TOTEN  =        -7.99517659 eV

  energy without entropy =       -7.99517659  energy(sigma->0) =       -7.99517659


--------------------------------------------------------------------------------------------------------




----------------------------------------- Iteration    1(   5)  ---------------------------------------


     EDDAV:  cpu time    0.82: real time    0.82
       DOS:  cpu time    0.00: real time    0.00
    CHARGE:  cpu time    0.12: real time    0.12
    MIXING:  cpu time    0.04: real time    0.04
    --------------------------------------------
      LOOP:  cpu time    0.98: real time    0.98

 eigenvalue-minimisations  :    26
 total energy-change (2. order) :-0.2638187E-02  (-0.2638187E-02)
 number of electron      10.0000030 magnetization 
 augmentation part        0.7526241 magnetization 

 Broyden mixing:
  rms(total) = 0.12932E+01    rms(broyden)= 0.12925E+01
  rms(prec ) = 0.20781E+01
  weight for this iteration     100.00

 Free energy of the ion-electron system (eV)
  ---------------------------------------------------
  alpha Z        PSCENC =         0.40002888
  Ewald energy   TEWEN  =       -50.49858510
  -1/2 Hartree   DENC   =      -442.75493025
  -exchange  EXHF       =         0.00000000
  -V(xc)+E(xc)   XCENC  =        36.84648221
  PAW double counting   =       455.07152327     -457.43959975
  entropy T*S    EENTRO =        -0.00000000
  eigenvalues    EBANDS =      -129.01315395
  atomic energy  EATOM  =       579.39041991
  ---------------------------------------------------
  free energy    TOTEN  =        -7.99781477 eV

  energy without entropy =       -7.99781477  energy(sigma->0) =       -7.99781477


--------------------------------------------------------------------------------------------------------




----------------------------------------- Iteration    1(   6)  ---------------------------------------


    POTLOK:  cpu time    1.06: real time    1.07
    SETDIJ:  cpu time    0.01: real time    0.01
    EDDIAG:  cpu time    0.12: real time    0.12
  RMM-DIIS:  cpu time    0.49: real time    0.49
    ORTHCH:  cpu time    0.01: real time    0.01
       DOS:  cpu time    0.00: real time    0.00
    CHARGE:  cpu time    0.11: real time    0.11
    MIXING:  cpu time    0.04: real time    0.04
    --------------------------------------------
      LOOP:  cpu time    1.85: real time    1.85

 eigenvalue-minimisations  :    20
 total energy-change (2. order) :-0.2197859E+02  (-0.1610707E+01)
 number of electron       9.9999977 magnetization 
 augmentation part       -0.0360360 magnetization 

 Broyden mixing:
  rms(total) = 0.35908E+01    rms(broyden)= 0.35890E+01
  rms(prec ) = 0.55746E+01
  weight for this iteration     100.00

 eigenvalues of (default mixing * dielectric matrix)
  average eigenvalue GAMMA=   0.2627
  0.2627

 Free energy of the ion-electron system (eV)
  ---------------------------------------------------
  alpha Z        PSCENC =         0.40002888
  Ewald energy   TEWEN  =       -50.49858510
  -1/2 Hartree   DENC   =      -472.82968283
  -exchange  EXHF       =         0.00000000
  -V(xc)+E(xc)   XCENC  =        38.27272423
  PAW double counting   =       513.96791944     -516.66970213
  entropy T*S    EENTRO =        -0.00000000
  eigenvalues    EBANDS =      -122.00952763
  atomic energy  EATOM  =       579.39041991
  ---------------------------------------------------
  free energy    TOTEN  =       -29.97640523 eV

  energy without entropy =      -29.97640523  energy(sigma->0) =      -29.97640523


--------------------------------------------------------------------------------------------------------




----------------------------------------- Iteration    1(   7)  ---------------------------------------


    POTLOK:  cpu time    1.01: real time    1.01
    SETDIJ:  cpu time    0.01: real time    0.01
    EDDIAG:  cpu time    0.11: real time    0.11
  RMM-DIIS:  cpu time    0.40: real time    0.41
    ORTHCH:  cpu time    0.01: real time    0.01
       DOS:  cpu time    0.00: real time    0.00
    CHARGE:  cpu time    0.11: real time    0.11
    MIXING:  cpu time    0.04: real time    0.04
    --------------------------------------------
      LOOP:  cpu time    1.69: real time    1.69

 eigenvalue-minimisations  :    19
 total energy-change (2. order) : 0.2599446E+02  (-0.8492135E+00)
 number of electron      10.0000029 magnetization 
 augmentation part        0.5167778 magnetization 

 Broyden mixing:
  rms(total) = 0.38467E+00    rms(broyden)= 0.37580E+00
  rms(prec ) = 0.62769E+00
  weight for this iteration     100.00

 eigenvalues of (default mixing * dielectric matrix)
  average eigenvalue GAMMA=   0.1336
  0.2628  0.0044

 Free energy of the ion-electron system (eV)
  ---------------------------------------------------
  alpha Z        PSCENC =         0.40002888
  Ewald energy   TEWEN  =       -50.49858510
  -1/2 Hartree   DENC   =      -452.09513462
  -exchange  EXHF       =         0.00000000
  -V(xc)+E(xc)   XCENC  =        37.35527494
  PAW double counting   =       477.80919183     -480.29933568
  entropy T*S    EENTRO =        -0.00008735
  eigenvalues    EBANDS =      -116.04371495
  atomic energy  EATOM  =       579.39041991
  ---------------------------------------------------
  free energy    TOTEN  =        -3.98194214 eV

  energy without entropy =       -3.98185479  energy(sigma->0) =       -3.98189847


--------------------------------------------------------------------------------------------------------




----------------------------------------- Iteration    1(   8)  ---------------------------------------


    POTLOK:  cpu time    1.05: real time    1.05
    SETDIJ:  cpu time    0.00: real time    0.01
    EDDIAG:  cpu time    0.13: real time    0.13
  RMM-DIIS:  cpu time    0.64: real time    0.64
    ORTHCH:  cpu time    0.01: real time    0.01
       DOS:  cpu time    0.00: real time    0.00
    CHARGE:  cpu time    0.14: real time    0.14
    MIXING:  cpu time    0.05: real time    0.05
    --------------------------------------------
      LOOP:  cpu time    2.03: real time    2.03

 eigenvalue-minimisations  :    22
 total energy-change (2. order) :-0.3960064E-01  (-0.1934800E-01)
 number of electron      10.0000030 magnetization 
 augmentation part        0.5434198 magnetization 

 Broyden mixing:
  rms(total) = 0.43894E+00    rms(broyden)= 0.43852E+00
  rms(prec ) = 0.74852E+00
  weight for this iteration     100.00

 eigenvalues of (default mixing * dielectric matrix)
  average eigenvalue GAMMA=   0.2053
  0.2752  0.1704  0.1704

 Free energy of the ion-electron system (eV)
  ---------------------------------------------------
  alpha Z        PSCENC =         0.40002888
  Ewald energy   TEWEN  =       -50.49858510
  -1/2 Hartree   DENC   =      -451.99373248
  -exchange  EXHF       =         0.00000000
  -V(xc)+E(xc)   XCENC  =        37.30501844
  PAW double counting   =       477.60754693     -480.09215922
  entropy T*S    EENTRO =        -0.00014745
  eigenvalues    EBANDS =      -116.13993269
  atomic energy  EATOM  =       579.39041991
  ---------------------------------------------------
  free energy    TOTEN  =        -4.02154278 eV

  energy without entropy =       -4.02139533  energy(sigma->0) =       -4.02146905


--------------------------------------------------------------------------------------------------------




----------------------------------------- Iteration    1(   9)  ---------------------------------------


    POTLOK:  cpu time    1.16: real time    1.16
    SETDIJ:  cpu time    0.00: real time    0.01
    EDDIAG:  cpu time    0.13: real time    0.13
  RMM-DIIS:  cpu time    0.58: real time    0.57
    ORTHCH:  cpu time    0.00: real time    0.01
       DOS:  cpu time    0.00: real time    0.00
    CHARGE:  cpu time    0.12: real time    0.12
    MIXING:  cpu time    0.04: real time    0.04
    --------------------------------------------
      LOOP:  cpu time    2.04: real time    2.04

 eigenvalue-minimisations  :    20
 total energy-change (2. order) :-0.1104918E+01  (-0.1695679E-01)
 number of electron       9.9999979 magnetization 
 augmentation part        0.1119639 magnetization 

 Broyden mixing:
  rms(total) = 0.20066E+01    rms(broyden)= 0.20040E+01
  rms(prec ) = 0.30975E+01
  weight for this iteration     100.00

 eigenvalues of (default mixing * dielectric matrix)
  average eigenvalue GAMMA=   0.3960
  0.6000  0.6000  0.1920  0.1920

 Free energy of the ion-electron system (eV)
  ---------------------------------------------------
  alpha Z        PSCENC =         0.40002888
  Ewald energy   TEWEN  =       -50.49858510
  -1/2 Hartree   DENC   =      -456.13529729
  -exchange  EXHF       =         0.00000000
  -V(xc)+E(xc)   XCENC  =        37.49276511
  PAW double counting   =       485.94348267     -488.44698829
  entropy T*S    EENTRO =        -0.00345837
  eigenvalues    EBANDS =      -113.26882805
  atomic energy  EATOM  =       579.39041991
  ---------------------------------------------------
  free energy    TOTEN  =        -5.12646052 eV

  energy without entropy =       -5.12300215  energy(sigma->0) =       -5.12473134


--------------------------------------------------------------------------------------------------------




----------------------------------------- Iteration    1(  10)  ---------------------------------------


    POTLOK:  cpu time    0.99: real time    0.99
    SETDIJ:  cpu time    0.00: real time    0.00
    EDDIAG:  cpu time    0.12: real time    0.12
  RMM-DIIS:  cpu time    0.41: real time    0.41
    ORTHCH:  cpu time    0.00: real time    0.01
       DOS:  cpu time    0.00: real time    0.00
    CHARGE:  cpu time    0.11: real time    0.11
    MIXING:  cpu time    0.05: real time    0.05
    --------------------------------------------
      LOOP:  cpu time    1.69: real time    1.69

 eigenvalue-minimisations  :    19
 total energy-change (2. order) : 0.2352930E+00  (-0.2591547E-02)
 number of electron       9.9999980 magnetization 
 augmentation part        0.1261220 magnetization 

 Broyden mixing:
  rms(total) = 0.19192E+01    rms(broyden)= 0.19191E+01
  rms(prec ) = 0.29730E+01
  weight for this iteration     100.00

 eigenvalues of (default mixing * dielectric matrix)
  average eigenvalue GAMMA=   0.8827
  2.6960  0.8069  0.4832  0.2138  0.2138

 Free energy of the ion-electron system (eV)
  ---------------------------------------------------
  alpha Z        PSCENC =         0.40002888
  Ewald energy   TEWEN  =       -50.49858510
  -1/2 Hartree   DENC   =      -455.15292819
  -exchange  EXHF       =         0.00000000
  -V(xc)+E(xc)   XCENC  =        37.43791159
  PAW double counting   =       484.82561678     -487.26798579
  entropy T*S    EENTRO =        -0.00531464
  eigenvalues    EBANDS =      -114.02033093
  atomic energy  EATOM  =       579.39041991
  ---------------------------------------------------
  free energy    TOTEN  =        -4.89116749 eV

  energy without entropy =       -4.88585285  energy(sigma->0) =       -4.88851017


--------------------------------------------------------------------------------------------------------




----------------------------------------- Iteration    1(  11)  ---------------------------------------


    POTLOK:  cpu time    0.98: real time    0.99
    SETDIJ:  cpu time    0.01: real time    0.01
    EDDIAG:  cpu time    0.11: real time    0.11
  RMM-DIIS:  cpu time    0.44: real time    0.44
    ORTHCH:  cpu time    0.00: real time    0.01
       DOS:  cpu time    0.00: real time    0.00
    CHARGE:  cpu time    0.12: real time    0.11
    MIXING:  cpu time    0.05: real time    0.05
    --------------------------------------------
      LOOP:  cpu time    1.71: real time    1.71

 eigenvalue-minimisations  :    19
 total energy-change (2. order) : 0.1176771E+01  (-0.3494180E-01)
 number of electron      10.0000014 magnetization 
 augmentation part        0.3932420 magnetization 

 Broyden mixing:
  rms(total) = 0.43703E+00    rms(broyden)= 0.43199E+00
  rms(prec ) = 0.63359E+00
  weight for this iteration     100.00

 eigenvalues of (default mixing * dielectric matrix)
  average eigenvalue GAMMA=   0.7799
  1.8342  1.4014  0.5071  0.5071  0.2149  0.2149

 Free energy of the ion-electron system (eV)
  ---------------------------------------------------
  alpha Z        PSCENC =         0.40002888
  Ewald energy   TEWEN  =       -50.49858510
  -1/2 Hartree   DENC   =      -450.89098879
  -exchange  EXHF       =         0.00000000
  -V(xc)+E(xc)   XCENC  =        37.13433691
  PAW double counting   =       476.36514417     -478.63996052
  entropy T*S    EENTRO =        -0.01565944
  eigenvalues    EBANDS =      -116.95913219
  atomic energy  EATOM  =       579.39041991
  ---------------------------------------------------
  free energy    TOTEN  =        -3.71439616 eV

  energy without entropy =       -3.69873672  energy(sigma->0) =       -3.70656644


--------------------------------------------------------------------------------------------------------




----------------------------------------- Iteration    1(  12)  ---------------------------------------


    POTLOK:  cpu time    1.03: real time    1.03
    SETDIJ:  cpu time    0.01: real time    0.01
    EDDIAG:  cpu time    0.12: real time    0.13
  RMM-DIIS:  cpu time    0.52: real time    0.52
    ORTHCH:  cpu time    0.01: real time    0.01
       DOS:  cpu time    0.00: real time    0.00
    CHARGE:  cpu time    0.14: real time    0.14
    MIXING:  cpu time    0.06: real time    0.06
    --------------------------------------------
      LOOP:  cpu time    1.89: real time    1.89

 eigenvalue-minimisations  :    19
 total energy-change (2. order) :-0.2298446E-01  (-0.3354507E-02)
 number of electron      10.0000021 magnetization 
 augmentation part        0.4569912 magnetization 

 Broyden mixing:
  rms(total) = 0.15463E+00    rms(broyden)= 0.15216E+00
  rms(prec ) = 0.18752E+00
  weight for this iteration     100.00

 eigenvalues of (default mixing * dielectric matrix)
  average eigenvalue GAMMA=   1.0558
  3.0871  1.2754  1.2754  0.8192  0.5049  0.2143  0.2143

 Free energy of the ion-electron system (eV)
  ---------------------------------------------------
  alpha Z        PSCENC =         0.40002888
  Ewald energy   TEWEN  =       -50.49858510
  -1/2 Hartree   DENC   =      -450.17028889
  -exchange  EXHF       =         0.00000000
  -V(xc)+E(xc)   XCENC  =        37.04076486
  PAW double counting   =       472.99415464     -475.27224817
  entropy T*S    EENTRO =        -0.00884435
  eigenvalues    EBANDS =      -117.61278240
  atomic energy  EATOM  =       579.39041991
  ---------------------------------------------------
  free energy    TOTEN  =        -3.73738063 eV

  energy without entropy =       -3.72853628  energy(sigma->0) =       -3.73295845


--------------------------------------------------------------------------------------------------------




----------------------------------------- Iteration    1(  13)  ---------------------------------------


    POTLOK:  cpu time    1.22: real time    1.22
    SETDIJ:  cpu time    0.01: real time    0.01
    EDDIAG:  cpu time    0.14: real time    0.14
  RMM-DIIS:  cpu time    0.59: real time    0.59
    ORTHCH:  cpu time    0.01: real time    0.01
       DOS:  cpu time    0.00: real time    0.00
    CHARGE:  cpu time    0.15: real time    0.15
    MIXING:  cpu time    0.07: real time    0.07
    --------------------------------------------
      LOOP:  cpu time    2.18: real time    2.19

 eigenvalue-minimisations  :    19
 total energy-change (2. order) :-0.6008918E-03  (-0.1560897E-02)
 number of electron      10.0000019 magnetization 
 augmentation part        0.4493213 magnetization 

 Broyden mixing:
  rms(total) = 0.15628E+00    rms(broyden)= 0.15626E+00
  rms(prec ) = 0.20994E+00
  weight for this iteration     100.00

 eigenvalues of (default mixing * dielectric matrix)
  average eigenvalue GAMMA=   1.2641
  4.4433  1.6330  1.6330  0.2144  0.2144  0.7366  0.7366  0.5020

 Free energy of the ion-electron system (eV)
  ---------------------------------------------------
  alpha Z        PSCENC =         0.40002888
  Ewald energy   TEWEN  =       -50.49858510
  -1/2 Hartree   DENC   =      -449.63142414
  -exchange  EXHF       =         0.00000000
  -V(xc)+E(xc)   XCENC  =        36.97290270
  PAW double counting   =       469.51701422     -471.77951106
  entropy T*S    EENTRO =        -0.01135539
  eigenvalues    EBANDS =      -118.09747154
  atomic energy  EATOM  =       579.39041991
  ---------------------------------------------------
  free energy    TOTEN  =        -3.73798152 eV

  energy without entropy =       -3.72662613  energy(sigma->0) =       -3.73230382


--------------------------------------------------------------------------------------------------------




----------------------------------------- Iteration    1(  14)  ---------------------------------------


    POTLOK:  cpu time    1.24: real time    1.24
    SETDIJ:  cpu time    0.01: real time    0.01
    EDDIAG:  cpu time    0.14: real time    0.14
  RMM-DIIS:  cpu time    0.46: real time    0.46
    ORTHCH:  cpu time    0.00: real time    0.01
       DOS:  cpu time    0.00: real time    0.00
    CHARGE:  cpu time    0.12: real time    0.12
    MIXING:  cpu time    0.06: real time    0.06
    --------------------------------------------
      LOOP:  cpu time    2.03: real time    2.03

 eigenvalue-minimisations  :    19
 total energy-change (2. order) :-0.1505396E+00  (-0.1212175E-02)
 number of electron      10.0000002 magnetization 
 augmentation part        0.3294081 magnetization 

 Broyden mixing:
  rms(total) = 0.78416E+00    rms(broyden)= 0.78336E+00
  rms(prec ) = 0.12143E+01
  weight for this iteration     100.00

 eigenvalues of (default mixing * dielectric matrix)
  average eigenvalue GAMMA=   1.2141
  3.4656  1.8731  1.8731  1.1188  0.8284  0.8284  0.5105  0.2144  0.2144

 Free energy of the ion-electron system (eV)
  ---------------------------------------------------
  alpha Z        PSCENC =         0.40002888
  Ewald energy   TEWEN  =       -50.49858510
  -1/2 Hartree   DENC   =      -449.73281314
  -exchange  EXHF       =         0.00000000
  -V(xc)+E(xc)   XCENC  =        36.93690528
  PAW double counting   =       466.44191246     -468.70678768
  entropy T*S    EENTRO =        -0.02493154
  eigenvalues    EBANDS =      -118.09467023
  atomic energy  EATOM  =       579.39041991
  ---------------------------------------------------
  free energy    TOTEN  =        -3.88852115 eV

  energy without entropy =       -3.86358962  energy(sigma->0) =       -3.87605538


--------------------------------------------------------------------------------------------------------




----------------------------------------- Iteration    1(  15)  ---------------------------------------


    POTLOK:  cpu time    1.03: real time    1.03
    SETDIJ:  cpu time    0.00: real time    0.01
    EDDIAG:  cpu time    0.12: real time    0.12
  RMM-DIIS:  cpu time    0.47: real time    0.47
    ORTHCH:  cpu time    0.00: real time    0.01
       DOS:  cpu time    0.00: real time    0.00
    CHARGE:  cpu time    0.12: real time    0.12
    MIXING:  cpu time    0.07: real time    0.07
    --------------------------------------------
      LOOP:  cpu time    1.82: real time    1.82

 eigenvalue-minimisations  :    19
 total energy-change (2. order) : 0.5067030E-01  (-0.2050593E-03)
 number of electron      10.0000004 magnetization 
 augmentation part        0.3413867 magnetization 

 Broyden mixing:
  rms(total) = 0.71755E+00    rms(broyden)= 0.71754E+00
  rms(prec ) = 0.11134E+01
  weight for this iteration     100.00

 eigenvalues of (default mixing * dielectric matrix)
  average eigenvalue GAMMA=   1.2015
  3.9477  1.9217  1.9217  0.8390  0.8390  0.5113  0.2144  0.2144  0.8029  0.8029

 Free energy of the ion-electron system (eV)
  ---------------------------------------------------
  alpha Z        PSCENC =         0.40002888
  Ewald energy   TEWEN  =       -50.49858510
  -1/2 Hartree   DENC   =      -449.55919768
  -exchange  EXHF       =         0.00000000
  -V(xc)+E(xc)   XCENC  =        36.93980219
  PAW double counting   =       466.31086342     -468.56787564
  entropy T*S    EENTRO =        -0.02467333
  eigenvalues    EBANDS =      -118.22863350
  atomic energy  EATOM  =       579.39041991
  ---------------------------------------------------
  free energy    TOTEN  =        -3.83785085 eV

  energy without entropy =       -3.81317752  energy(sigma->0) =       -3.82551419


--------------------------------------------------------------------------------------------------------




----------------------------------------- Iteration    1(  16)  ---------------------------------------


    POTLOK:  cpu time    1.04: real time    1.04
    SETDIJ:  cpu time    0.00: real time    0.01
    EDDIAG:  cpu time    0.11: real time    0.11
  RMM-DIIS:  cpu time    0.44: real time    0.43
    ORTHCH:  cpu time    0.00: real time    0.01
       DOS:  cpu time    0.00: real time    0.00
    CHARGE:  cpu time    0.12: real time    0.12
    MIXING:  cpu time    0.07: real time    0.07
    --------------------------------------------
      LOOP:  cpu time    1.78: real time    1.78

 eigenvalue-minimisations  :    19
 total energy-change (2. order) : 0.1434292E+00  (-0.7478698E-02)
 number of electron      10.0000020 magnetization 
 augmentation part        0.4758919 magnetization 

 Broyden mixing:
  rms(total) = 0.34844E-01    rms(broyden)= 0.10434E-01
  rms(prec ) = 0.17131E-01
  weight for this iteration     100.00
  WARNING: grid for Broyden might be to small

 eigenvalues of (default mixing * dielectric matrix)
  average eigenvalue GAMMA=   1.3304
  5.2042  2.0335  2.0335  1.0024  1.0024  0.2144  0.2144  0.8646  0.8646  0.5130
  0.6877

 Free energy of the ion-electron system (eV)
  ---------------------------------------------------
  alpha Z        PSCENC =         0.40002888
  Ewald energy   TEWEN  =       -50.49858510
  -1/2 Hartree   DENC   =      -447.61226660
  -exchange  EXHF       =         0.00000000
  -V(xc)+E(xc)   XCENC  =        36.79781050
  PAW double counting   =       459.63478569     -461.85291991
  entropy T*S    EENTRO =        -0.01119262
  eigenvalues    EBANDS =      -119.94250243
  atomic energy  EATOM  =       579.39041991
  ---------------------------------------------------
  free energy    TOTEN  =        -3.69442170 eV

  energy without entropy =       -3.68322907  energy(sigma->0) =       -3.68882539


--------------------------------------------------------------------------------------------------------




----------------------------------------- Iteration    1(  17)  ---------------------------------------


    POTLOK:  cpu time    1.06: real time    1.07
    SETDIJ:  cpu time    0.01: real time    0.01
    EDDIAG:  cpu time    0.12: real time    0.12
  RMM-DIIS:  cpu time    0.46: real time    0.46
    ORTHCH:  cpu time    0.00: real time    0.01
       DOS:  cpu time    0.00: real time    0.00
    CHARGE:  cpu time    0.13: real time    0.13
    MIXING:  cpu time    0.08: real time    0.08
    --------------------------------------------
      LOOP:  cpu time    1.87: real time    1.87

 eigenvalue-minimisations  :    19
 total energy-change (2. order) :-0.2729938E-01  (-0.1961648E-03)
 number of electron      10.0000020 magnetization 
 augmentation part        0.4808249 magnetization 

 Broyden mixing:
  rms(total) = 0.24311E-01    rms(broyden)= 0.23004E-01
  rms(prec ) = 0.37841E-01
  weight for this iteration     100.00

 eigenvalues of (default mixing * dielectric matrix)
  average eigenvalue GAMMA=   1.4226
  5.8452  2.3864  1.7996  1.0851  1.0851  1.3962  0.2144  0.2144  0.5122  0.9716
  0.7808  0.7808

 Free energy of the ion-electron system (eV)
  ---------------------------------------------------
  alpha Z        PSCENC =         0.40002888
  Ewald energy   TEWEN  =       -50.49858510
  -1/2 Hartree   DENC   =      -447.66805085
  -exchange  EXHF       =         0.00000000
  -V(xc)+E(xc)   XCENC  =        36.79013498
  PAW double counting   =       460.05933256     -462.29436970
  entropy T*S    EENTRO =        -0.01039395
  eigenvalues    EBANDS =      -119.89023782
  atomic energy  EATOM  =       579.39041991
  ---------------------------------------------------
  free energy    TOTEN  =        -3.72172108 eV

  energy without entropy =       -3.71132713  energy(sigma->0) =       -3.71652411


--------------------------------------------------------------------------------------------------------




----------------------------------------- Iteration    1(  18)  ---------------------------------------


    POTLOK:  cpu time    1.16: real time    1.16
    SETDIJ:  cpu time    0.00: real time    0.01
    EDDIAG:  cpu time    0.14: real time    0.14
  RMM-DIIS:  cpu time    0.56: real time    0.56
    ORTHCH:  cpu time    0.01: real time    0.01
       DOS:  cpu time    0.00: real time    0.00
    CHARGE:  cpu time    0.15: real time    0.15
    MIXING:  cpu time    0.10: real time    0.10
    --------------------------------------------
      LOOP:  cpu time    2.11: real time    2.12

 eigenvalue-minimisations  :    19
 total energy-change (2. order) :-0.2464594E-01  (-0.9816347E-03)
 number of electron      10.0000024 magnetization 
 augmentation part        0.5195045 magnetization 

 Broyden mixing:
  rms(total) = 0.22054E+00    rms(broyden)= 0.22033E+00
  rms(prec ) = 0.34140E+00
  weight for this iteration     100.00

 eigenvalues of (default mixing * dielectric matrix)
  average eigenvalue GAMMA=   1.5422
  4.5460  4.5460  2.5874  1.1473  1.1473  0.2144  0.2144  1.3138  1.3138  0.5123
  0.8713  0.8713  0.7636

 Free energy of the ion-electron system (eV)
  ---------------------------------------------------
  alpha Z        PSCENC =         0.40002888
  Ewald energy   TEWEN  =       -50.49858510
  -1/2 Hartree   DENC   =      -446.97766149
  -exchange  EXHF       =         0.00000000
  -V(xc)+E(xc)   XCENC  =        36.74121496
  PAW double counting   =       457.94838144     -460.18972667
  entropy T*S    EENTRO =        -0.00561908
  eigenvalues    EBANDS =      -120.55481987
  atomic energy  EATOM  =       579.39041991
  ---------------------------------------------------
  free energy    TOTEN  =        -3.74636702 eV

  energy without entropy =       -3.74074794  energy(sigma->0) =       -3.74355748


--------------------------------------------------------------------------------------------------------




----------------------------------------- Iteration    1(  19)  ---------------------------------------


    POTLOK:  cpu time    1.27: real time    1.28
    SETDIJ:  cpu time    0.01: real time    0.01
    EDDIAG:  cpu time    0.14: real time    0.14
  RMM-DIIS:  cpu time    0.58: real time    0.58
    ORTHCH:  cpu time    0.01: real time    0.01
       DOS:  cpu time    0.00: real time    0.00
    CHARGE:  cpu time    0.14: real time    0.15
    MIXING:  cpu time    0.11: real time    0.11
    --------------------------------------------
      LOOP:  cpu time    2.26: real time    2.26

 eigenvalue-minimisations  :    19
 total energy-change (2. order) : 0.1247209E-01  (-0.1932863E-03)
 number of electron      10.0000023 magnetization 
 augmentation part        0.5066876 magnetization 

 Broyden mixing:
  rms(total) = 0.15482E+00    rms(broyden)= 0.15482E+00
  rms(prec ) = 0.24157E+00
  weight for this iteration     100.00

 eigenvalues of (default mixing * dielectric matrix)
  average eigenvalue GAMMA=   1.4628
  4.3433  3.4910  3.4910  1.1427  1.1427  1.6687  0.2144  0.2144  1.0499  0.5123
  0.8560  0.8560  0.8152  0.6825

 Free energy of the ion-electron system (eV)
  ---------------------------------------------------
  alpha Z        PSCENC =         0.40002888
  Ewald energy   TEWEN  =       -50.49858510
  -1/2 Hartree   DENC   =      -447.32425829
  -exchange  EXHF       =         0.00000000
  -V(xc)+E(xc)   XCENC  =        36.77028400
  PAW double counting   =       459.54891182     -461.80476470
  entropy T*S    EENTRO =        -0.00690137
  eigenvalues    EBANDS =      -120.20903008
  atomic energy  EATOM  =       579.39041991
  ---------------------------------------------------
  free energy    TOTEN  =        -3.73389493 eV

  energy without entropy =       -3.72699356  energy(sigma->0) =       -3.73044425


--------------------------------------------------------------------------------------------------------




----------------------------------------- Iteration    1(  20)  ---------------------------------------


    POTLOK:  cpu time    1.24: real time    1.24
    SETDIJ:  cpu time    0.01: real time    0.01
    EDDIAG:  cpu time    0.13: real time    0.13
  RMM-DIIS:  cpu time    0.42: real time    0.42
    ORTHCH:  cpu time    0.00: real time    0.01
       DOS:  cpu time    0.00: real time    0.00
    CHARGE:  cpu time    0.12: real time    0.12
    MIXING:  cpu time    0.09: real time    0.09
    --------------------------------------------
      LOOP:  cpu time    2.01: real time    2.01

 eigenvalue-minimisations  :    17
 total energy-change (2. order) : 0.4446674E-02  (-0.4811120E-04)
 number of electron      10.0000022 magnetization 
 augmentation part        0.4960915 magnetization 

 Broyden mixing:
  rms(total) = 0.10094E+00    rms(broyden)= 0.10091E+00
  rms(prec ) = 0.15704E+00
  weight for this iteration     100.00

 eigenvalues of (default mixing * dielectric matrix)
  average eigenvalue GAMMA=   1.5984
  5.1867  5.1867  2.2115  2.2115  1.1495  1.1495  1.5620  0.2144  0.2144  0.5122
  0.8812  0.8812  1.0170  0.8511  0.7463

 Free energy of the ion-electron system (eV)
  ---------------------------------------------------
  alpha Z        PSCENC =         0.40002888
  Ewald energy   TEWEN  =       -50.49858510
  -1/2 Hartree   DENC   =      -447.44894964
  -exchange  EXHF       =         0.00000000
  -V(xc)+E(xc)   XCENC  =        36.77543893
  PAW double counting   =       460.02188114     -462.27335138
  entropy T*S    EENTRO =        -0.00832444
  eigenvalues    EBANDS =      -120.08800657
  atomic energy  EATOM  =       579.39041991
  ---------------------------------------------------
  free energy    TOTEN  =        -3.72944826 eV

  energy without entropy =       -3.72112382  energy(sigma->0) =       -3.72528604


--------------------------------------------------------------------------------------------------------




----------------------------------------- Iteration    1(  21)  ---------------------------------------


    POTLOK:  cpu time    1.07: real time    1.07
    SETDIJ:  cpu time    0.00: real time    0.01
    EDDIAG:  cpu time    0.11: real time    0.12
  RMM-DIIS:  cpu time    0.40: real time    0.40
    ORTHCH:  cpu time    0.00: real time    0.01
       DOS:  cpu time    0.00: real time    0.00
    CHARGE:  cpu time    0.12: real time    0.12
    MIXING:  cpu time    0.09: real time    0.09
    --------------------------------------------
      LOOP:  cpu time    1.80: real time    1.81

 eigenvalue-minimisations  :    18
 total energy-change (2. order) : 0.1766801E-02  (-0.1369325E-03)
 number of electron      10.0000020 magnetization 
 augmentation part        0.4822289 magnetization 

 Broyden mixing:
  rms(total) = 0.30088E-01    rms(broyden)= 0.29881E-01
  rms(prec ) = 0.47398E-01
  weight for this iteration     100.00

 eigenvalues of (default mixing * dielectric matrix)
  average eigenvalue GAMMA=   1.6977
  5.7889  4.9158  3.0412  3.0412  1.1528  1.1528  1.7067  0.2144  0.2144  0.5123
  0.9874  0.9874  1.0103  0.8523  0.8523  0.7339

 Free energy of the ion-electron system (eV)
  ---------------------------------------------------
  alpha Z        PSCENC =         0.40002888
  Ewald energy   TEWEN  =       -50.49858510
  -1/2 Hartree   DENC   =      -447.67681280
  -exchange  EXHF       =         0.00000000
  -V(xc)+E(xc)   XCENC  =        36.79073140
  PAW double counting   =       460.88699277     -463.14057131
  entropy T*S    EENTRO =        -0.01006936
  eigenvalues    EBANDS =      -119.86981585
  atomic energy  EATOM  =       579.39041991
  ---------------------------------------------------
  free energy    TOTEN  =        -3.72768146 eV

  energy without entropy =       -3.71761210  energy(sigma->0) =       -3.72264678


--------------------------------------------------------------------------------------------------------




----------------------------------------- Iteration    1(  22)  ---------------------------------------


    POTLOK:  cpu time    1.10: real time    1.11
    SETDIJ:  cpu time    0.00: real time    0.01
    EDDIAG:  cpu time    0.12: real time    0.11
  RMM-DIIS:  cpu time    0.44: real time    0.44
    ORTHCH:  cpu time    0.00: real time    0.01
       DOS:  cpu time    0.00: real time    0.00
    CHARGE:  cpu time    0.14: real time    0.13
    MIXING:  cpu time    0.12: real time    0.12
    --------------------------------------------
      LOOP:  cpu time    1.92: real time    1.93

 eigenvalue-minimisations  :    17
 total energy-change (2. order) :-0.1284534E-02  (-0.4534477E-04)
 number of electron      10.0000019 magnetization 
 augmentation part        0.4719661 magnetization 

 Broyden mixing:
  rms(total) = 0.23549E-01    rms(broyden)= 0.23339E-01
  rms(prec ) = 0.35467E-01
  weight for this iteration     100.00

 eigenvalues of (default mixing * dielectric matrix)
  average eigenvalue GAMMA=   1.7722
  8.1645  3.7027  3.7027  3.1500  1.1525  1.1525  1.4653  1.4653  0.2144  0.2144
  0.9961  0.9961  0.5123  0.8482  0.8482  0.7942  0.7477

 Free energy of the ion-electron system (eV)
  ---------------------------------------------------
  alpha Z        PSCENC =         0.40002888
  Ewald energy   TEWEN  =       -50.49858510
  -1/2 Hartree   DENC   =      -447.77734201
  -exchange  EXHF       =         0.00000000
  -V(xc)+E(xc)   XCENC  =        36.79562396
  PAW double counting   =       461.13408597     -463.38679034
  entropy T*S    EENTRO =        -0.01150505
  eigenvalues    EBANDS =      -119.77490221
  atomic energy  EATOM  =       579.39041991
  ---------------------------------------------------
  free energy    TOTEN  =        -3.72896599 eV

  energy without entropy =       -3.71746094  energy(sigma->0) =       -3.72321347


--------------------------------------------------------------------------------------------------------




----------------------------------------- Iteration    1(  23)  ---------------------------------------


    POTLOK:  cpu time    1.19: real time    1.19
    SETDIJ:  cpu time    0.00: real time    0.01
    EDDIAG:  cpu time    0.13: real time    0.13
  RMM-DIIS:  cpu time    0.34: real time    0.34
    ORTHCH:  cpu time    0.01: real time    0.01
       DOS:  cpu time    0.00: real time    0.00
    CHARGE:  cpu time    0.13: real time    0.13
    MIXING:  cpu time    0.12: real time    0.12
    --------------------------------------------
      LOOP:  cpu time    1.93: real time    1.93

 eigenvalue-minimisations  :    11
 total energy-change (2. order) :-0.4183217E-03  (-0.7023493E-05)
 number of electron      10.0000019 magnetization 
 augmentation part        0.4724928 magnetization 

 Broyden mixing:
  rms(total) = 0.20287E-01    rms(broyden)= 0.20279E-01
  rms(prec ) = 0.31218E-01
  weight for this iteration     100.00

 eigenvalues of (default mixing * dielectric matrix)
  average eigenvalue GAMMA=   1.8057
  8.1054  4.6468  3.2268  3.2268  2.3015  1.1526  1.1526  0.2144  0.2144  1.3583
  1.3583  0.5123  0.9509  0.9509  0.8707  0.8707  0.7314  0.6579

 Free energy of the ion-electron system (eV)
  ---------------------------------------------------
  alpha Z        PSCENC =         0.40002888
  Ewald energy   TEWEN  =       -50.49858510
  -1/2 Hartree   DENC   =      -447.71823442
  -exchange  EXHF       =         0.00000000
  -V(xc)+E(xc)   XCENC  =        36.79019083
  PAW double counting   =       460.86624162     -463.11605502
  entropy T*S    EENTRO =        -0.01149844
  eigenvalues    EBANDS =      -119.83189257
  atomic energy  EATOM  =       579.39041991
  ---------------------------------------------------
  free energy    TOTEN  =        -3.72938431 eV

  energy without entropy =       -3.71788588  energy(sigma->0) =       -3.72363510


--------------------------------------------------------------------------------------------------------




----------------------------------------- Iteration    1(  24)  ---------------------------------------


    POTLOK:  cpu time    1.22: real time    1.22
    SETDIJ:  cpu time    0.00: real time    0.01
    EDDIAG:  cpu time    0.13: real time    0.13
  RMM-DIIS:  cpu time    0.34: real time    0.34
    ORTHCH:  cpu time    0.01: real time    0.01
       DOS:  cpu time    0.00: real time    0.00
    --------------------------------------------
      LOOP:  cpu time    1.70: real time    1.70

 eigenvalue-minimisations  :    11
 total energy-change (2. order) : 0.9198189E-05  (-0.8360576E-05)
 number of electron      10.0000019 magnetization 
 augmentation part        0.4724928 magnetization 

 Free energy of the ion-electron system (eV)
  ---------------------------------------------------
  alpha Z        PSCENC =         0.40002888
  Ewald energy   TEWEN  =       -50.49858510
  -1/2 Hartree   DENC   =      -447.65448199
  -exchange  EXHF       =         0.00000000
  -V(xc)+E(xc)   XCENC  =        36.78517337
  PAW double counting   =       460.68846723     -462.93602586
  entropy T*S    EENTRO =        -0.01130090
  eigenvalues    EBANDS =      -119.89307067
  atomic energy  EATOM  =       579.39041991
  ---------------------------------------------------
  free energy    TOTEN  =        -3.72937512 eV

  energy without entropy =       -3.71807422  energy(sigma->0) =       -3.72372467


--------------------------------------------------------------------------------------------------------




 average (electrostatic) potential at core
  the test charge radii are     0.6991  0.7215
  (the norm of the test charge is              1.0000)
       1 -64.5313       2 -81.5171
 
 
 
 E-fermi :  -6.9198     XC(G=0):  -0.7826     alpha+bet : -0.1603


 k-point   1 :       0.0000    0.0000    0.0000
  band No.  band energies     occupation 
      1     -22.0545      2.00000
      2     -15.2665      2.00000
      3      -8.0228      2.00000
      4      -7.3044      1.99346
      5      -7.3034      1.99331
      6      -6.5360      0.00664
      7      -6.5356      0.00659
      8      -5.4285      0.00000
      9      -0.4050      0.00000


--------------------------------------------------------------------------------------------------------


 soft charge-density along one line, spin component           1
         0         1         2         3         4         5         6         7         8         9
 total charge-density along one line
 
 pseudopotential strength for first ion, spin component:           1
 10.559  14.050  -0.000   0.003  -0.000   0.000  -0.008   0.000
 14.050  18.695  -0.000   0.003  -0.000   0.000  -0.010   0.000
 -0.000  -0.000  -4.722  -0.000   0.000   9.268   0.000  -0.000
  0.003   0.003  -0.000  -4.711  -0.000   0.000   9.246   0.000
 -0.000  -0.000   0.000  -0.000  -4.722  -0.000   0.000   9.268
  0.000   0.000   9.268   0.000  -0.000 -20.346  -0.000   0.000
 -0.008  -0.010   0.000   9.246   0.000  -0.000 -20.301  -0.000
  0.000   0.000  -0.000   0.000   9.268   0.000  -0.000 -20.346
 total augmentation occupancy for first ion, spin component:           1
  1.430   0.214   0.000   0.009   0.000   0.000  -0.002   0.000
  0.214   0.055   0.000  -0.109   0.000   0.000  -0.002   0.000
  0.000   0.000   0.530   0.000   0.000   0.002   0.000   0.000
  0.009  -0.109   0.000   0.737   0.000   0.000   0.011   0.000
  0.000   0.000   0.000   0.000   0.531   0.000   0.000   0.003
  0.000   0.000   0.002   0.000   0.000   0.000   0.000   0.000
 -0.002  -0.002   0.000   0.011   0.000   0.000   0.000   0.000
  0.000   0.000   0.000   0.000   0.003   0.000   0.000   0.000


------------------------ aborting loop because EDIFF is reached ----------------------------------------


    CHARGE:  cpu time    0.14: real time    0.13
    FORLOC:  cpu time    0.08: real time    0.08
    FORNL :  cpu time    0.06: real time    0.06
    STRESS:  cpu time    0.38: real time    0.39
    FORCOR:  cpu time    1.34: real time    1.35
    FORHAR:  cpu time    0.32: real time    0.31
    MIXING:  cpu time    0.10: real time    0.10

  FORCE on cell =-STRESS in cart. coord.  units (eV):
  Direction    XX          YY          ZZ          XY          YZ          ZX
  --------------------------------------------------------------------------------------
  Alpha Z     0.40003     0.40003     0.40003
  Ewald     -64.11444   -67.86032    81.47614     0.00000     0.00000     0.00000
  Hartree   114.96286   111.32297   220.57437    -0.00000    -0.00000    -0.00000
  E(xc)     -40.32512   -40.32445   -39.92094    -0.00000     0.00000    -0.00000
  Local    -179.41821  -172.02482  -431.28752    -0.00000    -0.00000    -0.00000
  n-local   -13.93524   -13.92802   -13.85914    -0.00000    -0.00000     0.00000
  augment     5.90527     5.90559     5.28502     0.00000    -0.00000     0.00000
  Kinetic   175.39514   175.40978   164.96845    -0.00000    -0.00000    -0.00000
  Fock        0.00000     0.00000     0.00000     0.00000     0.00000     0.00000
  -------------------------------------------------------------------------------------
  Total      -1.12972    -1.09923   -12.36360     0.00000     0.00000     0.00000
  in kB      -1.65704    -1.61232   -18.13459     0.00000     0.00000     0.00000
  external pressure =       -7.13 kB  Pullay stress =        0.00 kB


 VOLUME and BASIS-vectors are now :
 -----------------------------------------------------------------------------
  energy-cutoff  :      400.00
  volume of cell :     1092.32
      direct lattice vectors                 reciprocal lattice vectors
    10.100000000  0.000000000  0.000000000     0.099009901  0.000000000  0.000000000
     0.000000000 10.300000000  0.000000000     0.000000000  0.097087379  0.000000000
     0.000000000  0.000000000 10.500000000     0.000000000  0.000000000  0.095238095

  length of vectors
    10.100000000 10.300000000 10.500000000     0.099009901  0.097087379  0.095238095


 FORCES acting on ions
    electron-ion (+dipol)            ewald-force                    non-local-force                 convergence-correction
 -----------------------------------------------------------------------------------------------
   0.244E-15 0.802E-15 0.535E+02   -.270E-16 0.447E-17 -.566E+02   0.000E+00 0.000E+00 0.762E+01   0.297E-13 0.429E-13 0.123E+00
   0.314E-14 -.912E-14 -.517E+02   0.585E-16 0.991E-17 0.566E+02   0.000E+00 0.000E+00 -.973E+01   -.226E-12 -.247E-12 0.185E+00
 -----------------------------------------------------------------------------------------------
   0.338E-14 -.832E-14 0.181E+01   0.315E-16 0.144E-16 0.000E+00   0.000E+00 0.000E+00 -.211E+01   -.197E-12 -.204E-12 0.308E+00
 
 
 POSITION                                       TOTAL-FORCE (eV/Angst)
 -----------------------------------------------------------------------------------
      0.00000      0.00000      0.00000         0.000000      0.000000      4.679212
      0.00000      0.00000      2.40000         0.000000      0.000000     -4.679212
 -----------------------------------------------------------------------------------
    total drift:                               -0.000000     -0.000000      0.005782


--------------------------------------------------------------------------------------------------------



  FREE ENERGIE OF THE ION-ELECTRON SYSTEM (eV)
  ---------------------------------------------------
  free  energy   TOTEN  =        -3.72937512 eV

  energy  without entropy=       -3.71807422  energy(sigma->0) =       -3.72372467
 


--------------------------------------------------------------------------------------------------------


    POTLOK:  cpu time    1.09: real time    1.09


--------------------------------------------------------------------------------------------------------


     LOOP+:  cpu time   45.40: real time   45.49
    4ORBIT:  cpu time    0.00: real time    0.00

 total amount of memory used by VASP on root node   140193. kBytes
========================================================================

   base      :      30000. kBytes
   nonl-proj :       3171. kBytes
   fftplans  :      37440. kBytes
   grid      :      66720. kBytes
   one-center:          6. kBytes
   wavefun   :       2856. kBytes
 
  
  
 General timing and accounting informations for this job:
 ========================================================
  
                  Total CPU time used (sec):       47.640
                            User time (sec):       47.324
                          System time (sec):        0.316
                         Elapsed time (sec):       47.726
  
                   Maximum memory used (kb):      234804.
                   Average memory used (kb):           0.
  
                          Minor page faults:        75069
                          Major page faults:            0
                 Voluntary context switches:            2
