 vasp.5.3.3 18Dez12 (build Sep  7 2015 22:32:56) complex                        
  
 executed on             LinuxIFC date 2002.02.05  00:47:53
 running on    1 total cores
 distrk:  each k-point on    1 cores,    1 groups
 distr:  one band on NCORES_PER_BAND=   1 cores,    1 groups


--------------------------------------------------------------------------------------------------------


 INCAR:
 POTCAR:    PAW_PBE C 08Apr2002                   
 POTCAR:    PAW_PBE O 08Apr2002                   
 POTCAR:    PAW_PBE C 08Apr2002                   
   VRHFIN =C: s2p2                                                              
   LEXCH  = PE                                                                  
   EATOM  =   147.1560 eV,   10.8157 Ry                                         
                                                                                
   TITEL  = PAW_PBE C 08Apr2002                                                 
   LULTRA =        F    use ultrasoft PP ?                                      
   IUNSCR =        1    unscreen: 0-lin 1-nonlin 2-no                           
   RPACOR =    1.200    partial core radius                                     
   POMASS =   12.011; ZVAL   =    4.000    mass and valenz                      
   RCORE  =    1.500    outmost cutoff radius                                   
   RWIGS  =    1.630; RWIGS  =    0.863    wigner-seitz radius (au A)           
   ENMAX  =  400.000; ENMIN  =  300.000 eV                                      
   ICORE  =        2    local potential                                         
   LCOR   =        T    correct aug charges                                     
   LPAW   =        T    paw PP                                                  
   EAUG   =  644.873                                                            
   DEXC   =    0.000                                                            
   RMAX   =    1.529    core radius for proj-oper                               
   RAUG   =    1.300    factor for augmentation sphere                          
   RDEP   =    1.501    radius for radial grids                                 
   RDEPT  =    1.300    core radius for aug-charge                              
                                                                                
   Atomic configuration                                                         
    4 entries                                                                   
     n  l   j            E        occ.                                          
     1  0  0.50      -273.3789   2.0000                                         
     2  0  0.50       -13.7508   2.0000                                         
     2  1  0.50        -5.2854   2.0000                                         
     3  2  1.50        -5.4423   0.0000                                         
   Description                                                                  
     l       E           TYP  RCUT    TYP  RCUT                                 
     0    -13.7508458     23  1.200                                             
     0     -8.2022199     23  1.200                                             
     1     -5.2854383     23  1.500                                             
     1     34.0145650     23  1.500                                             
     2     -5.4423304      7  1.500                                             
  local pseudopotential read in
  partial core-charges read in
  partial kinetic energy density read in
  atomic valenz-charges read in
  non local Contribution for L=           0  read in
    real space projection operators read in
  non local Contribution for L=           0  read in
    real space projection operators read in
  non local Contribution for L=           1  read in
    real space projection operators read in
  non local Contribution for L=           1  read in
    real space projection operators read in
    PAW grid and wavefunctions read in
 
   number of l-projection  operators is LMAX  =           4
   number of lm-projection operators is LMMAX =           8
 
 POTCAR:    PAW_PBE O 08Apr2002                   
   VRHFIN =O: s2p4                                                              
   LEXCH  = PE                                                                  
   EATOM  =   432.3788 eV,   31.7789 Ry                                         
                                                                                
   TITEL  = PAW_PBE O 08Apr2002                                                 
   LULTRA =        F    use ultrasoft PP ?                                      
   IUNSCR =        1    unscreen: 0-lin 1-nonlin 2-no                           
   RPACOR =    1.200    partial core radius                                     
   POMASS =   16.000; ZVAL   =    6.000    mass and valenz                      
   RCORE  =    1.520    outmost cutoff radius                                   
   RWIGS  =    1.550; RWIGS  =    0.820    wigner-seitz radius (au A)           
   ENMAX  =  400.000; ENMIN  =  300.000 eV                                      
   ICORE  =        2    local potential                                         
   LCOR   =        T    correct aug charges                                     
   LPAW   =        T    paw PP                                                  
   EAUG   =  605.392                                                            
   DEXC   =    0.000                                                            
   RMAX   =    1.553    core radius for proj-oper                               
   RAUG   =    1.300    factor for augmentation sphere                          
   RDEP   =    1.550    radius for radial grids                                 
   RDEPT  =    1.329    core radius for aug-charge                              
                                                                                
   Atomic configuration                                                         
    4 entries                                                                   
     n  l   j            E        occ.                                          
     1  0  0.50      -514.6923   2.0000                                         
     2  0  0.50       -23.9615   2.0000                                         
     2  1  0.50        -9.0305   4.0000                                         
     3  2  1.50        -9.5241   0.0000                                         
   Description                                                                  
     l       E           TYP  RCUT    TYP  RCUT                                 
     0    -23.9615318     23  1.200                                             
     0     -9.5240782     23  1.200                                             
     1     -9.0304911     23  1.520                                             
     1      8.1634956     23  1.520                                             
     2     -9.5240782      7  1.500                                             
  local pseudopotential read in
  partial core-charges read in
  partial kinetic energy density read in
  kinetic energy density of atom read in
  atomic valenz-charges read in
  non local Contribution for L=           0  read in
    real space projection operators read in
  non local Contribution for L=           0  read in
    real space projection operators read in
  non local Contribution for L=           1  read in
    real space projection operators read in
  non local Contribution for L=           1  read in
    real space projection operators read in
    PAW grid and wavefunctions read in
 
   number of l-projection  operators is LMAX  =           4
   number of lm-projection operators is LMMAX =           8
 
  PAW_PBE C 08Apr2002                   :
 energy of atom  1       EATOM= -147.1560
 kinetic energy error for atom=    0.0288 (will be added to EATOM!!)
  PAW_PBE O 08Apr2002                   :
 energy of atom  2       EATOM= -432.3788
 kinetic energy error for atom=    0.1156 (will be added to EATOM!!)
 
 
 POSCAR: CO molecule in a box                    
  positions in cartesian coordinates
  No initial velocities read in
 exchange correlation table for  LEXCH =        8
   RHO(1)=    0.500       N(1)  =     2000
   RHO(2)=  100.500       N(2)  =     4000
 


--------------------------------------------------------------------------------------------------------


 ion  position               nearest neighbor table
   1  0.000  0.000  0.000-   2 1.40
   2  0.000  0.000  0.133-   1 1.40
 
  LATTYP: Found a simple orthorhombic cell.
 ALAT       =    10.1000000000
 B/A-ratio  =     1.0198019802
 C/A-ratio  =     1.0396039604
  
  Lattice vectors:
  
 A1 = (  10.1000000000,   0.0000000000,   0.0000000000)
 A2 = (   0.0000000000,  10.3000000000,   0.0000000000)
 A3 = (   0.0000000000,   0.0000000000,  10.5000000000)


Analysis of symmetry for initial positions (statically):
=====================================================================
 Subroutine PRICEL returns:
 Original cell was already a primitive cell.
 

 Routine SETGRP: Setting up the symmetry group for a 
 simple orthorhombic supercell.


 Subroutine GETGRP returns: Found  4 space group operations
 (whereof  4 operations were pure point group operations)
 out of a pool of  8 trial point group operations.


The static configuration has the point symmetry C_2v.


Analysis of symmetry for dynamics (positions and initial velocities):
=====================================================================
 Subroutine PRICEL returns:
 Original cell was already a primitive cell.
 

 Routine SETGRP: Setting up the symmetry group for a 
 simple orthorhombic supercell.


 Subroutine GETGRP returns: Found  4 space group operations
 (whereof  4 operations were pure point group operations)
 out of a pool of  8 trial point group operations.


The dynamic configuration has the point symmetry C_2v.


Analysis of constrained symmetry for selective dynamics:
=====================================================================
 Subroutine PRICEL returns:
 Original cell was already a primitive cell.
 

 Routine SETGRP: Setting up the symmetry group for a 
 simple orthorhombic supercell.


 Subroutine GETGRP returns: Found  4 space group operations
 (whereof  4 operations were pure point group operations)
 out of a pool of  8 trial point group operations.


The constrained configuration has the point symmetry C_2v.


 irot  :   1
 --------------------------------------------------------------------
 isymop:   1   0   0
           0   1   0
           0   0   1

 gtrans:     0.0000000     0.0000000     0.0000000

 ptrans:     0.0000000     0.0000000     0.0000000
 rotmap:
 (   1->   1)  (   2->   2) 


 irot  :   2
 --------------------------------------------------------------------
 isymop:  -1   0   0
           0  -1   0
           0   0   1

 gtrans:     0.0000000     0.0000000     0.0000000

 ptrans:     0.0000000     0.0000000     0.0000000
 rotmap:
 (   1->   1)  (   2->   2) 


 irot  :   3
 --------------------------------------------------------------------
 isymop:   1   0   0
           0  -1   0
           0   0   1

 gtrans:     0.0000000     0.0000000     0.0000000

 ptrans:     0.0000000     0.0000000     0.0000000
 rotmap:
 (   1->   1)  (   2->   2) 


 irot  :   4
 --------------------------------------------------------------------
 isymop:  -1   0   0
           0   1   0
           0   0   1

 gtrans:     0.0000000     0.0000000     0.0000000

 ptrans:     0.0000000     0.0000000     0.0000000
 rotmap:
 (   1->   1)  (   2->   2) 
 
 
 KPOINTS: Gamma-point only                        

Automatic generation of k-mesh.
Space group operators:
 irot       det(A)        alpha          n_x          n_y          n_z        tau_x        tau_y        tau_z
    1     1.000000     0.000000     1.000000     0.000000     0.000000     0.000000     0.000000     0.000000
    2     1.000000   180.000000     0.000000     0.000000     1.000000     0.000000     0.000000     0.000000
    3    -1.000000   180.000000     0.000000     1.000000     0.000000     0.000000     0.000000     0.000000
    4    -1.000000   180.000000     1.000000     0.000000     0.000000     0.000000     0.000000     0.000000
 
 Subroutine IBZKPT returns following result:
 ===========================================
 
 Found      1 irreducible k-points:
 
 Following reciprocal coordinates:
            Coordinates               Weight
  0.000000  0.000000  0.000000      1.000000
 
 Following cartesian coordinates:
            Coordinates               Weight
  0.000000  0.000000  0.000000      1.000000
 


--------------------------------------------------------------------------------------------------------




 Dimension of arrays:
   k-points           NKPTS =      1   k-points in BZ     NKDIM =      1   number of bands    NBANDS=      9
   number of dos      NEDOS =    301   number of ions     NIONS =      2
   non local maximal  LDIM  =      4   non local SUM 2l+1 LMDIM =      8
   total plane-waves  NPLWV = 135000
   max r-space proj   IRMAX =      1   max aug-charges    IRDMAX=   1803
   dimension x,y,z NGX =    50 NGY =   50 NGZ =   54
   dimension x,y,z NGXF=   100 NGYF=  100 NGZF=  108
   support grid    NGXF=   100 NGYF=  100 NGZF=  108
   ions per type =               1   1
 NGX,Y,Z   is equivalent  to a cutoff of   8.23,  8.07,  8.55 a.u.
 NGXF,Y,Z  is equivalent  to a cutoff of  16.46, 16.14, 17.10 a.u.


 I would recommend the setting:
   dimension x,y,z NGX =    49 NGY =   50 NGZ =   51
 SYSTEM =  Hello World                             
 POSCAR =  CO molecule in a box                    

 Startparameter for this run:
   NWRITE =      2    write-flag & timer
   PREC   = normal    normal or accurate (medium, high low for compatibility)
   ISTART =      0    job   : 0-new  1-cont  2-samecut
   ICHARG =      2    charge: 1-file 2-atom 10-const
   ISPIN  =      1    spin polarized calculation?
   LNONCOLLINEAR =      F non collinear calculations
   LSORBIT =      F    spin-orbit coupling
   INIWAV =      1    electr: 0-lowe 1-rand  2-diag
   LASPH  =      F    aspherical Exc in radial PAW
   METAGGA=      F    non-selfconsistent MetaGGA calc.

 Electronic Relaxation 1
   ENCUT  =  400.0 eV  29.40 Ry    5.42 a.u.  16.47 16.80 17.12*2*pi/ulx,y,z
   ENINI  =  400.0     initial cutoff
   ENAUG  =  644.9 eV  augmentation charge cutoff
   NELM   =     60;   NELMIN=  2; NELMDL=  0     # of ELM steps 
   EDIFF  = 0.1E-03   stopping-criterion for ELM
   LREAL  =      F    real-space projection
   NLSPLINE    = F    spline interpolate recip. space projectors
   LCOMPAT=      F    compatible to vasp.4.4
   GGA_COMPAT  = T    GGA compatible to vasp.4.4-vasp.4.6
   LMAXPAW     = -100 max onsite density
   LMAXMIX     =    2 max onsite mixed and CHGCAR
   VOSKOWN=      0    Vosko Wilk Nusair interpolation
   ROPT   =    0.00000   0.00000
 Ionic relaxation
   EDIFFG = -.1E-01   stopping-criterion for IOM
   NSW    =      0    number of steps for IOM
   NBLOCK =      1;   KBLOCK =      1    inner block; outer block 
   IBRION =     -1    ionic relax: 0-MD 1-quasi-New 2-CG
   NFREE  =      0    steps in history (QN), initial steepest desc. (CG)
   ISIF   =      2    stress and relaxation
   IWAVPR =     10    prediction:  0-non 1-charg 2-wave 3-comb
   ISYM   =      2    0-nonsym 1-usesym 2-fastsym
   LCORR  =      T    Harris-Foulkes like correction to forces

   POTIM  = 0.5000    time-step for ionic-motion
   TEIN   =    0.0    initial temperature
   TEBEG  =    0.0;   TEEND  =   0.0 temperature during run
   SMASS  =  -3.00    Nose mass-parameter (am)
   estimated Nose-frequenzy (Omega)   =  0.10E-29 period in steps =****** mass=  -0.233E-26a.u.
   SCALEE = 1.0000    scale energy and forces
   NPACO  =    256;   APACO  = 16.0  distance and # of slots for P.C.
   PSTRESS=    0.0 pullay stress

  Mass of Ions in am
   POMASS =  12.01 16.00
  Ionic Valenz
   ZVAL   =   4.00  6.00
  Atomic Wigner-Seitz radii
   RWIGS  =  -1.00 -1.00
  virtual crystal weights 
   VCA    =   1.00  1.00
   NELECT =      10.0000    total number of electrons
   NUPDOWN=      -1.0000    fix difference up-down

 DOS related values:
   EMIN   =  10.00;   EMAX   =-10.00  energy-range for DOS
   EFERMI =   0.00
   ISMEAR =     0;   SIGMA  =   0.20  broadening in eV -4-tet -1-fermi 0-gaus

 Electronic relaxation 2 (details)
   IALGO  =     68    algorithm
   LDIAG  =      T    sub-space diagonalisation (order eigenvalues)
   LSUBROT=      T    optimize rotation matrix (better conditioning)
   TURBO    =      0    0=normal 1=particle mesh
   IRESTART =      0    0=no restart 2=restart with 2 vectors
   NREBOOT  =      0    no. of reboots
   NMIN     =      0    reboot dimension
   EREF     =   0.00    reference energy to select bands
   IMIX   =      4    mixing-type and parameters
     AMIX     =   0.40;   BMIX     =  1.00
     AMIX_MAG =   1.60;   BMIX_MAG =  1.00
     AMIN     =   0.10
     WC   =   100.;   INIMIX=   1;  MIXPRE=   1;  MAXMIX= -45

 Intra band minimization:
   WEIMIN = 0.0000     energy-eigenvalue tresh-hold
   EBREAK =  0.28E-05  absolut break condition
   DEPER  =   0.30     relativ break condition  

   TIME   =   0.40     timestep for ELM

  volume/ion in A,a.u.               =     546.16      3685.65
  Fermi-wavevector in a.u.,A,eV,Ry     =   0.342472  0.647179  1.595791  0.117287
  Thomas-Fermi vector in A             =   1.247862
 
 Write flags
   LWAVE  =      F    write WAVECAR
   LCHARG =      F    write CHGCAR
   LVTOT  =      F    write LOCPOT, total local potential
   LVHAR  =      F    write LOCPOT, Hartree potential only
   LELF   =      F    write electronic localiz. function (ELF)
   LORBIT =      0    0 simple, 1 ext, 2 COOP (PROOUT)


 Dipole corrections
   LMONO  =      F    monopole corrections only (constant potential shift)
   LDIPOL =      F    correct potential (dipole corrections)
   IDIPOL =      0    1-x, 2-y, 3-z, 4-all directions 
   EPSILON=  1.0000000 bulk dielectric constant

 Exchange correlation treatment:
   GGA     =    --    GGA type
   LEXCH   =     8    internal setting for exchange type
   VOSKOWN=      0    Vosko Wilk Nusair interpolation
   LHFCALC =     F    Hartree Fock is set to
   LHFONE  =     F    Hartree Fock one center treatment
   AEXX    =    0.0000 exact exchange contribution

 Linear response parameters
   LEPSILON=     F    determine dielectric tensor
   LRPA    =     F    only Hartree local field effects (RPA)
   LNABLA  =     F    use nabla operator in PAW spheres
   LVEL    =     F    velocity operator in full k-point grid
   LINTERFAST=   F  fast interpolation
   KINTER  =     0    interpolate to denser k-point grid
   CSHIFT  =0.1000    complex shift for real part using Kramers Kronig
   OMEGAMAX=  -1.0    maximum frequency
   DEG_THRESHOLD= 0.2000000E-02 threshold for treating states as degnerate
   RTIME   =    0.100 relaxation time in fs

 Orbital magnetization related:
   ORBITALMAG=     F  switch on orbital magnetization
   LCHIMAG   =     F  perturbation theory with respect to B field
   DQ        =  0.001000  dq finite difference perturbation B field



--------------------------------------------------------------------------------------------------------


 Static calculation
 charge density and potential will be updated during run
 non-spin polarized calculation
 RMM-DIIS sequential band-by-band and
  variant of blocked Davidson during initial phase
 perform sub-space diagonalisation
    before iterative eigenvector-optimisation
 modified Broyden-mixing scheme, WC =      100.0
 initial mixing is a Kerker type mixing with AMIX =  0.4000 and BMIX =      1.0000
 Hartree-type preconditioning will be used
 using additional bands            4
 reciprocal scheme for non local part
 use partial core corrections
 calculate Harris-corrections to forces 
   (improved forces if not selfconsistent)
 use gradient corrections 
 use of overlap-Matrix (Vanderbilt PP)
 Gauss-broadening in eV      SIGMA  =   0.20


--------------------------------------------------------------------------------------------------------


  energy-cutoff  :      400.00
  volume of cell :     1092.32
      direct lattice vectors                 reciprocal lattice vectors
    10.100000000  0.000000000  0.000000000     0.099009901  0.000000000  0.000000000
     0.000000000 10.300000000  0.000000000     0.000000000  0.097087379  0.000000000
     0.000000000  0.000000000 10.500000000     0.000000000  0.000000000  0.095238095

  length of vectors
    10.100000000 10.300000000 10.500000000     0.099009901  0.097087379  0.095238095


 
 k-points in units of 2pi/SCALE and weight: Gamma-point only                        
   0.00000000  0.00000000  0.00000000       1.000
 
 k-points in reciprocal lattice and weights: Gamma-point only                        
   0.00000000  0.00000000  0.00000000       1.000
 
 position of ions in fractional coordinates (direct lattice) 
   0.00000000  0.00000000  0.00000000
   0.00000000  0.00000000  0.13333333
 
 position of ions in cartesian coordinates  (Angst):
   0.00000000  0.00000000  0.00000000
   0.00000000  0.00000000  1.40000000
 


--------------------------------------------------------------------------------------------------------


 k-point  1 :   0.0000 0.0000 0.0000  plane waves:   19819

 maximum and minimum number of plane-waves per node :     19819    19819

 maximum number of plane-waves:     19819
 maximum index in each direction: 
   IXMAX=   16   IYMAX=   16   IZMAX=   17
   IXMIN=  -16   IYMIN=  -16   IZMIN=  -17

 WARNING: aliasing errors must be expected set NGX to  66 to avoid them
 WARNING: aliasing errors must be expected set NGY to  66 to avoid them
 WARNING: aliasing errors must be expected set NGZ to  70 to avoid them
 aliasing errors are usually negligible using standard VASP settings
 and one can safely disregard these warnings

 serial   3D FFT for wavefunctions
 parallel 3D FFT for charge:
    minimum data exchange during FFTs selected (reduces bandwidth)


 total amount of memory used by VASP on root node   140193. kBytes
========================================================================

   base      :      30000. kBytes
   nonl-proj :       3171. kBytes
   fftplans  :      37440. kBytes
   grid      :      66720. kBytes
   one-center:          6. kBytes
   wavefun   :       2856. kBytes
 
 Broyden mixing: mesh for mixing (old mesh)
   NGX = 33   NGY = 33   NGZ = 35
  (NGX  =100   NGY  =100   NGZ  =108)
  gives a total of  38115 points

 initial charge density was supplied:
 charge density of overlapping atoms calculated
 number of electron      10.0000000 magnetization 
 keeping initial charge density in first step


--------------------------------------------------------------------------------------------------------


 Maximum index for augmentation-charges         1529 (set IRDMAX)


--------------------------------------------------------------------------------------------------------


 First call to EWALD:  gamma=   0.172
 Maximum number of real-space cells 3x 3x 3
 Maximum number of reciprocal cells 3x 3x 3

 FEWALD executed in parallel
    FEWALD:  cpu time    0.00: real time    0.00


----------------------------------------- Iteration    1(   1)  ---------------------------------------


    POTLOK:  cpu time    1.21: real time    1.21
    SETDIJ:  cpu time    0.00: real time    0.01
     EDDAV:  cpu time    0.50: real time    0.50
       DOS:  cpu time    0.00: real time    0.00
    --------------------------------------------
      LOOP:  cpu time    1.71: real time    1.72

 eigenvalue-minimisations  :    18
 total energy-change (2. order) : 0.7325760E+02  (-0.1853023E+03)
 number of electron      10.0000000 magnetization 
 augmentation part       10.0000000 magnetization 

 Free energy of the ion-electron system (eV)
  ---------------------------------------------------
  alpha Z        PSCENC =         0.40002888
  Ewald energy   TEWEN  =        49.79200601
  -1/2 Hartree   DENC   =      -529.99120804
  -exchange  EXHF       =         0.00000000
  -V(xc)+E(xc)   XCENC  =        38.22376034
  PAW double counting   =       455.07152327     -457.43959975
  entropy T*S    EENTRO =        -0.01011581
  eigenvalues    EBANDS =       -62.17921127
  atomic energy  EATOM  =       579.39041991
  ---------------------------------------------------
  free energy    TOTEN  =        73.25760356 eV

  energy without entropy =       73.26771937  energy(sigma->0) =       73.26266146


--------------------------------------------------------------------------------------------------------




----------------------------------------- Iteration    1(   2)  ---------------------------------------


     EDDAV:  cpu time    0.88: real time    0.88
       DOS:  cpu time    0.00: real time    0.00
    --------------------------------------------
      LOOP:  cpu time    0.88: real time    0.88

 eigenvalue-minimisations  :    34
 total energy-change (2. order) :-0.7124321E+02  (-0.7104009E+02)
 number of electron      10.0000000 magnetization 
 augmentation part       10.0000000 magnetization 

 Free energy of the ion-electron system (eV)
  ---------------------------------------------------
  alpha Z        PSCENC =         0.40002888
  Ewald energy   TEWEN  =        49.79200601
  -1/2 Hartree   DENC   =      -529.99120804
  -exchange  EXHF       =         0.00000000
  -V(xc)+E(xc)   XCENC  =        38.22376034
  PAW double counting   =       455.07152327     -457.43959975
  entropy T*S    EENTRO =        -0.00000000
  eigenvalues    EBANDS =      -133.43253268
  atomic energy  EATOM  =       579.39041991
  ---------------------------------------------------
  free energy    TOTEN  =         2.01439795 eV

  energy without entropy =        2.01439795  energy(sigma->0) =        2.01439795


--------------------------------------------------------------------------------------------------------




----------------------------------------- Iteration    1(   3)  ---------------------------------------


     EDDAV:  cpu time    0.81: real time    0.81
       DOS:  cpu time    0.00: real time    0.00
    --------------------------------------------
      LOOP:  cpu time    0.81: real time    0.81

 eigenvalue-minimisations  :    27
 total energy-change (2. order) :-0.1497452E+02  (-0.1497354E+02)
 number of electron      10.0000000 magnetization 
 augmentation part       10.0000000 magnetization 

 Free energy of the ion-electron system (eV)
  ---------------------------------------------------
  alpha Z        PSCENC =         0.40002888
  Ewald energy   TEWEN  =        49.79200601
  -1/2 Hartree   DENC   =      -529.99120804
  -exchange  EXHF       =         0.00000000
  -V(xc)+E(xc)   XCENC  =        38.22376034
  PAW double counting   =       455.07152327     -457.43959975
  entropy T*S    EENTRO =        -0.00000000
  eigenvalues    EBANDS =      -148.40705064
  atomic energy  EATOM  =       579.39041991
  ---------------------------------------------------
  free energy    TOTEN  =       -12.96012001 eV

  energy without entropy =      -12.96012001  energy(sigma->0) =      -12.96012001


--------------------------------------------------------------------------------------------------------




----------------------------------------- Iteration    1(   4)  ---------------------------------------


     EDDAV:  cpu time    0.82: real time    0.83
       DOS:  cpu time    0.00: real time    0.00
    --------------------------------------------
      LOOP:  cpu time    0.82: real time    0.83

 eigenvalue-minimisations  :    28
 total energy-change (2. order) :-0.4053934E+00  (-0.4053870E+00)
 number of electron      10.0000000 magnetization 
 augmentation part       10.0000000 magnetization 

 Free energy of the ion-electron system (eV)
  ---------------------------------------------------
  alpha Z        PSCENC =         0.40002888
  Ewald energy   TEWEN  =        49.79200601
  -1/2 Hartree   DENC   =      -529.99120804
  -exchange  EXHF       =         0.00000000
  -V(xc)+E(xc)   XCENC  =        38.22376034
  PAW double counting   =       455.07152327     -457.43959975
  entropy T*S    EENTRO =        -0.00000000
  eigenvalues    EBANDS =      -148.81244401
  atomic energy  EATOM  =       579.39041991
  ---------------------------------------------------
  free energy    TOTEN  =       -13.36551338 eV

  energy without entropy =      -13.36551338  energy(sigma->0) =      -13.36551338


--------------------------------------------------------------------------------------------------------




----------------------------------------- Iteration    1(   5)  ---------------------------------------


     EDDAV:  cpu time    0.82: real time    0.82
       DOS:  cpu time    0.00: real time    0.00
    CHARGE:  cpu time    0.12: real time    0.12
    MIXING:  cpu time    0.04: real time    0.04
    --------------------------------------------
      LOOP:  cpu time    0.98: real time    0.98

 eigenvalue-minimisations  :    28
 total energy-change (2. order) :-0.6350784E-03  (-0.6350669E-03)
 number of electron      10.0000011 magnetization 
 augmentation part        0.6493832 magnetization 

 Broyden mixing:
  rms(total) = 0.61797E+00    rms(broyden)= 0.61675E+00
  rms(prec ) = 0.81433E+00
  weight for this iteration     100.00

 Free energy of the ion-electron system (eV)
  ---------------------------------------------------
  alpha Z        PSCENC =         0.40002888
  Ewald energy   TEWEN  =        49.79200601
  -1/2 Hartree   DENC   =      -529.99120804
  -exchange  EXHF       =         0.00000000
  -V(xc)+E(xc)   XCENC  =        38.22376034
  PAW double counting   =       455.07152327     -457.43959975
  entropy T*S    EENTRO =        -0.00000000
  eigenvalues    EBANDS =      -148.81307909
  atomic energy  EATOM  =       579.39041991
  ---------------------------------------------------
  free energy    TOTEN  =       -13.36614846 eV

  energy without entropy =      -13.36614846  energy(sigma->0) =      -13.36614846


--------------------------------------------------------------------------------------------------------




----------------------------------------- Iteration    1(   6)  ---------------------------------------


    POTLOK:  cpu time    1.16: real time    1.16
    SETDIJ:  cpu time    0.00: real time    0.01
    EDDIAG:  cpu time    0.13: real time    0.13
  RMM-DIIS:  cpu time    0.54: real time    0.55
    ORTHCH:  cpu time    0.01: real time    0.01
       DOS:  cpu time    0.00: real time    0.00
    CHARGE:  cpu time    0.11: real time    0.11
    MIXING:  cpu time    0.04: real time    0.04
    --------------------------------------------
      LOOP:  cpu time    2.00: real time    2.00

 eigenvalue-minimisations  :    20
 total energy-change (2. order) : 0.2315819E+00  (-0.3537294E+00)
 number of electron       9.9999998 magnetization 
 augmentation part        0.4696103 magnetization 

 Broyden mixing:
  rms(total) = 0.57529E+00    rms(broyden)= 0.57415E+00
  rms(prec ) = 0.74654E+00
  weight for this iteration     100.00

 eigenvalues of (default mixing * dielectric matrix)
  average eigenvalue GAMMA=   0.5236
  0.5236

 Free energy of the ion-electron system (eV)
  ---------------------------------------------------
  alpha Z        PSCENC =         0.40002888
  Ewald energy   TEWEN  =        49.79200601
  -1/2 Hartree   DENC   =      -542.02880940
  -exchange  EXHF       =         0.00000000
  -V(xc)+E(xc)   XCENC  =        38.90469679
  PAW double counting   =       524.91408335     -527.37795098
  entropy T*S    EENTRO =        -0.00000000
  eigenvalues    EBANDS =      -137.12904110
  atomic energy  EATOM  =       579.39041991
  ---------------------------------------------------
  free energy    TOTEN  =       -13.13456653 eV

  energy without entropy =      -13.13456653  energy(sigma->0) =      -13.13456653


--------------------------------------------------------------------------------------------------------




----------------------------------------- Iteration    1(   7)  ---------------------------------------


    POTLOK:  cpu time    1.04: real time    1.04
    SETDIJ:  cpu time    0.01: real time    0.00
    EDDIAG:  cpu time    0.10: real time    0.10
  RMM-DIIS:  cpu time    0.44: real time    0.44
    ORTHCH:  cpu time    0.01: real time    0.01
       DOS:  cpu time    0.00: real time    0.00
    CHARGE:  cpu time    0.09: real time    0.09
    MIXING:  cpu time    0.03: real time    0.04
    --------------------------------------------
      LOOP:  cpu time    1.72: real time    1.72

 eigenvalue-minimisations  :    22
 total energy-change (2. order) : 0.4340983E+00  (-0.5684877E-01)
 number of electron      10.0000007 magnetization 
 augmentation part        0.5562709 magnetization 

 Broyden mixing:
  rms(total) = 0.18577E+00    rms(broyden)= 0.18479E+00
  rms(prec ) = 0.21142E+00
  weight for this iteration     100.00

 eigenvalues of (default mixing * dielectric matrix)
  average eigenvalue GAMMA=   1.4215
  2.3362  0.5068

 Free energy of the ion-electron system (eV)
  ---------------------------------------------------
  alpha Z        PSCENC =         0.40002888
  Ewald energy   TEWEN  =        49.79200601
  -1/2 Hartree   DENC   =      -537.60285789
  -exchange  EXHF       =         0.00000000
  -V(xc)+E(xc)   XCENC  =        38.67678927
  PAW double counting   =       533.12060310     -535.48022256
  entropy T*S    EENTRO =        -0.00000000
  eigenvalues    EBANDS =      -140.99723494
  atomic energy  EATOM  =       579.39041991
  ---------------------------------------------------
  free energy    TOTEN  =       -12.70046821 eV

  energy without entropy =      -12.70046821  energy(sigma->0) =      -12.70046821


--------------------------------------------------------------------------------------------------------




----------------------------------------- Iteration    1(   8)  ---------------------------------------


    POTLOK:  cpu time    0.98: real time    0.98
    SETDIJ:  cpu time    0.00: real time    0.00
    EDDIAG:  cpu time    0.10: real time    0.10
  RMM-DIIS:  cpu time    0.43: real time    0.43
    ORTHCH:  cpu time    0.01: real time    0.01
       DOS:  cpu time    0.00: real time    0.00
    CHARGE:  cpu time    0.09: real time    0.10
    MIXING:  cpu time    0.04: real time    0.04
    --------------------------------------------
      LOOP:  cpu time    1.66: real time    1.66

 eigenvalue-minimisations  :    21
 total energy-change (2. order) : 0.3019163E-01  (-0.7224194E-02)
 number of electron      10.0000006 magnetization 
 augmentation part        0.5510618 magnetization 

 Broyden mixing:
  rms(total) = 0.14267E-01    rms(broyden)= 0.14183E-01
  rms(prec ) = 0.22276E-01
  weight for this iteration     100.00

 eigenvalues of (default mixing * dielectric matrix)
  average eigenvalue GAMMA=   1.2751
  0.5031  0.9743  2.3479

 Free energy of the ion-electron system (eV)
  ---------------------------------------------------
  alpha Z        PSCENC =         0.40002888
  Ewald energy   TEWEN  =        49.79200601
  -1/2 Hartree   DENC   =      -540.21859339
  -exchange  EXHF       =         0.00000000
  -V(xc)+E(xc)   XCENC  =        38.83096509
  PAW double counting   =       594.73088876     -596.98647972
  entropy T*S    EENTRO =        -0.00000000
  eigenvalues    EBANDS =      -138.60951212
  atomic energy  EATOM  =       579.39041991
  ---------------------------------------------------
  free energy    TOTEN  =       -12.67027658 eV

  energy without entropy =      -12.67027658  energy(sigma->0) =      -12.67027658


--------------------------------------------------------------------------------------------------------




----------------------------------------- Iteration    1(   9)  ---------------------------------------


    POTLOK:  cpu time    1.08: real time    1.07
    SETDIJ:  cpu time    0.00: real time    0.01
    EDDIAG:  cpu time    0.12: real time    0.13
  RMM-DIIS:  cpu time    0.67: real time    0.67
    ORTHCH:  cpu time    0.01: real time    0.01
       DOS:  cpu time    0.00: real time    0.00
    CHARGE:  cpu time    0.12: real time    0.12
    MIXING:  cpu time    0.05: real time    0.05
    --------------------------------------------
      LOOP:  cpu time    2.05: real time    2.05

 eigenvalue-minimisations  :    25
 total energy-change (2. order) :-0.1186689E-02  (-0.5525632E-03)
 number of electron      10.0000005 magnetization 
 augmentation part        0.5500613 magnetization 

 Broyden mixing:
  rms(total) = 0.12419E-01    rms(broyden)= 0.12391E-01
  rms(prec ) = 0.18682E-01
  weight for this iteration     100.00

 eigenvalues of (default mixing * dielectric matrix)
  average eigenvalue GAMMA=   1.7662
  0.5038  1.0125  2.7743  2.7743

 Free energy of the ion-electron system (eV)
  ---------------------------------------------------
  alpha Z        PSCENC =         0.40002888
  Ewald energy   TEWEN  =        49.79200601
  -1/2 Hartree   DENC   =      -540.44826695
  -exchange  EXHF       =         0.00000000
  -V(xc)+E(xc)   XCENC  =        38.83726712
  PAW double counting   =       595.97288187     -598.22159683
  entropy T*S    EENTRO =        -0.00000000
  eigenvalues    EBANDS =      -138.39420328
  atomic energy  EATOM  =       579.39041991
  ---------------------------------------------------
  free energy    TOTEN  =       -12.67146327 eV

  energy without entropy =      -12.67146327  energy(sigma->0) =      -12.67146327


--------------------------------------------------------------------------------------------------------




----------------------------------------- Iteration    1(  10)  ---------------------------------------


    POTLOK:  cpu time    1.12: real time    1.12
    SETDIJ:  cpu time    0.00: real time    0.00
    EDDIAG:  cpu time    0.12: real time    0.12
  RMM-DIIS:  cpu time    0.36: real time    0.36
    ORTHCH:  cpu time    0.00: real time    0.01
       DOS:  cpu time    0.00: real time    0.00
    CHARGE:  cpu time    0.10: real time    0.09
    MIXING:  cpu time    0.04: real time    0.04
    --------------------------------------------
      LOOP:  cpu time    1.74: real time    1.75

 eigenvalue-minimisations  :    18
 total energy-change (2. order) :-0.2426024E-02  (-0.4846652E-03)
 number of electron      10.0000005 magnetization 
 augmentation part        0.5477289 magnetization 

 Broyden mixing:
  rms(total) = 0.19090E-01    rms(broyden)= 0.19080E-01
  rms(prec ) = 0.24254E-01
  weight for this iteration     100.00

 eigenvalues of (default mixing * dielectric matrix)
  average eigenvalue GAMMA=   1.4469
  2.4573  2.4573  0.5030  1.0274  0.7894

 Free energy of the ion-electron system (eV)
  ---------------------------------------------------
  alpha Z        PSCENC =         0.40002888
  Ewald energy   TEWEN  =        49.79200601
  -1/2 Hartree   DENC   =      -540.75129320
  -exchange  EXHF       =         0.00000000
  -V(xc)+E(xc)   XCENC  =        38.82909341
  PAW double counting   =       592.17005420     -594.40885829
  entropy T*S    EENTRO =        -0.00000000
  eigenvalues    EBANDS =      -138.09534023
  atomic energy  EATOM  =       579.39041991
  ---------------------------------------------------
  free energy    TOTEN  =       -12.67388930 eV

  energy without entropy =      -12.67388930  energy(sigma->0) =      -12.67388930


--------------------------------------------------------------------------------------------------------




----------------------------------------- Iteration    1(  11)  ---------------------------------------


    POTLOK:  cpu time    0.98: real time    0.98
    SETDIJ:  cpu time    0.00: real time    0.00
    EDDIAG:  cpu time    0.10: real time    0.10
  RMM-DIIS:  cpu time    0.42: real time    0.42
    ORTHCH:  cpu time    0.01: real time    0.01
       DOS:  cpu time    0.00: real time    0.00
    CHARGE:  cpu time    0.11: real time    0.11
    MIXING:  cpu time    0.05: real time    0.05
    --------------------------------------------
      LOOP:  cpu time    1.66: real time    1.67

 eigenvalue-minimisations  :    18
 total energy-change (2. order) : 0.2987701E-03  (-0.2675173E-04)
 number of electron      10.0000005 magnetization 
 augmentation part        0.5488028 magnetization 

 Broyden mixing:
  rms(total) = 0.83912E-02    rms(broyden)= 0.83877E-02
  rms(prec ) = 0.11679E-01
  weight for this iteration     100.00

 eigenvalues of (default mixing * dielectric matrix)
  average eigenvalue GAMMA=   1.7083
  2.8483  2.8483  0.5033  1.7683  0.9827  1.2990

 Free energy of the ion-electron system (eV)
  ---------------------------------------------------
  alpha Z        PSCENC =         0.40002888
  Ewald energy   TEWEN  =        49.79200601
  -1/2 Hartree   DENC   =      -540.77227681
  -exchange  EXHF       =         0.00000000
  -V(xc)+E(xc)   XCENC  =        38.83461081
  PAW double counting   =       594.49379420     -596.73055273
  entropy T*S    EENTRO =        -0.00000000
  eigenvalues    EBANDS =      -138.08162080
  atomic energy  EATOM  =       579.39041991
  ---------------------------------------------------
  free energy    TOTEN  =       -12.67359052 eV

  energy without entropy =      -12.67359052  energy(sigma->0) =      -12.67359052


--------------------------------------------------------------------------------------------------------




----------------------------------------- Iteration    1(  12)  ---------------------------------------


    POTLOK:  cpu time    1.09: real time    1.09
    SETDIJ:  cpu time    0.00: real time    0.01
    EDDIAG:  cpu time    0.12: real time    0.13
  RMM-DIIS:  cpu time    0.52: real time    0.52
    ORTHCH:  cpu time    0.01: real time    0.01
       DOS:  cpu time    0.00: real time    0.00
    CHARGE:  cpu time    0.11: real time    0.11
    MIXING:  cpu time    0.06: real time    0.06
    --------------------------------------------
      LOOP:  cpu time    1.91: real time    1.92

 eigenvalue-minimisations  :    20
 total energy-change (2. order) :-0.1985257E-02  (-0.1934137E-03)
 number of electron      10.0000005 magnetization 
 augmentation part        0.5505482 magnetization 

 Broyden mixing:
  rms(total) = 0.77587E-02    rms(broyden)= 0.77451E-02
  rms(prec ) = 0.10983E-01
  weight for this iteration     100.00

 eigenvalues of (default mixing * dielectric matrix)
  average eigenvalue GAMMA=   1.5789
  3.3427  2.4376  0.5033  1.4137  1.4137  1.0091  0.9320

 Free energy of the ion-electron system (eV)
  ---------------------------------------------------
  alpha Z        PSCENC =         0.40002888
  Ewald energy   TEWEN  =        49.79200601
  -1/2 Hartree   DENC   =      -540.91115972
  -exchange  EXHF       =         0.00000000
  -V(xc)+E(xc)   XCENC  =        38.84273490
  PAW double counting   =       594.24299892     -596.48118260
  entropy T*S    EENTRO =        -0.00000000
  eigenvalues    EBANDS =      -137.95142208
  atomic energy  EATOM  =       579.39041991
  ---------------------------------------------------
  free energy    TOTEN  =       -12.67557578 eV

  energy without entropy =      -12.67557578  energy(sigma->0) =      -12.67557578


--------------------------------------------------------------------------------------------------------




----------------------------------------- Iteration    1(  13)  ---------------------------------------


    POTLOK:  cpu time    1.12: real time    1.12
    SETDIJ:  cpu time    0.01: real time    0.01
    EDDIAG:  cpu time    0.11: real time    0.11
  RMM-DIIS:  cpu time    0.36: real time    0.37
    ORTHCH:  cpu time    0.01: real time    0.01
       DOS:  cpu time    0.00: real time    0.00
    CHARGE:  cpu time    0.10: real time    0.10
    MIXING:  cpu time    0.05: real time    0.05
    --------------------------------------------
      LOOP:  cpu time    1.77: real time    1.77

 eigenvalue-minimisations  :    16
 total energy-change (2. order) :-0.1096909E-03  (-0.7615820E-05)
 number of electron      10.0000005 magnetization 
 augmentation part        0.5496462 magnetization 

 Broyden mixing:
  rms(total) = 0.30641E-02    rms(broyden)= 0.30562E-02
  rms(prec ) = 0.44010E-02
  weight for this iteration     100.00

 eigenvalues of (default mixing * dielectric matrix)
  average eigenvalue GAMMA=   1.9818
  5.2155  2.7313  2.4746  0.5033  1.4623  1.4623  1.0239  0.9812

 Free energy of the ion-electron system (eV)
  ---------------------------------------------------
  alpha Z        PSCENC =         0.40002888
  Ewald energy   TEWEN  =        49.79200601
  -1/2 Hartree   DENC   =      -540.97142900
  -exchange  EXHF       =         0.00000000
  -V(xc)+E(xc)   XCENC  =        38.84365892
  PAW double counting   =       594.74154268     -596.97888909
  entropy T*S    EENTRO =        -0.00000000
  eigenvalues    EBANDS =      -137.89302378
  atomic energy  EATOM  =       579.39041991
  ---------------------------------------------------
  free energy    TOTEN  =       -12.67568547 eV

  energy without entropy =      -12.67568547  energy(sigma->0) =      -12.67568547


--------------------------------------------------------------------------------------------------------




----------------------------------------- Iteration    1(  14)  ---------------------------------------


    POTLOK:  cpu time    1.02: real time    1.02
    SETDIJ:  cpu time    0.00: real time    0.01
    EDDIAG:  cpu time    0.12: real time    0.12
  RMM-DIIS:  cpu time    0.45: real time    0.45
    ORTHCH:  cpu time    0.01: real time    0.01
       DOS:  cpu time    0.00: real time    0.00
    CHARGE:  cpu time    0.11: real time    0.11
    MIXING:  cpu time    0.06: real time    0.06
    --------------------------------------------
      LOOP:  cpu time    1.78: real time    1.78

 eigenvalue-minimisations  :    18
 total energy-change (2. order) :-0.7559564E-03  (-0.2009901E-04)
 number of electron      10.0000005 magnetization 
 augmentation part        0.5491332 magnetization 

 Broyden mixing:
  rms(total) = 0.13161E-02    rms(broyden)= 0.13060E-02
  rms(prec ) = 0.19091E-02
  weight for this iteration     100.00

 eigenvalues of (default mixing * dielectric matrix)
  average eigenvalue GAMMA=   1.9243
  5.7483  2.8307  2.4417  0.5033  1.4407  1.4407  0.9462  0.9462  1.0208

 Free energy of the ion-electron system (eV)
  ---------------------------------------------------
  alpha Z        PSCENC =         0.40002888
  Ewald energy   TEWEN  =        49.79200601
  -1/2 Hartree   DENC   =      -540.96862653
  -exchange  EXHF       =         0.00000000
  -V(xc)+E(xc)   XCENC  =        38.83987967
  PAW double counting   =       595.00367155     -597.24094406
  entropy T*S    EENTRO =        -0.00000000
  eigenvalues    EBANDS =      -137.89287686
  atomic energy  EATOM  =       579.39041991
  ---------------------------------------------------
  free energy    TOTEN  =       -12.67644143 eV

  energy without entropy =      -12.67644143  energy(sigma->0) =      -12.67644143


--------------------------------------------------------------------------------------------------------




----------------------------------------- Iteration    1(  15)  ---------------------------------------


    POTLOK:  cpu time    1.07: real time    1.07
    SETDIJ:  cpu time    0.00: real time    0.01
    EDDIAG:  cpu time    0.12: real time    0.12
  RMM-DIIS:  cpu time    0.37: real time    0.37
    ORTHCH:  cpu time    0.01: real time    0.01
       DOS:  cpu time    0.00: real time    0.00
    CHARGE:  cpu time    0.11: real time    0.11
    MIXING:  cpu time    0.07: real time    0.07
    --------------------------------------------
      LOOP:  cpu time    1.74: real time    1.74

 eigenvalue-minimisations  :    14
 total energy-change (2. order) :-0.1016250E-03  (-0.1601568E-05)
 number of electron      10.0000005 magnetization 
 augmentation part        0.5493416 magnetization 

 Broyden mixing:
  rms(total) = 0.36611E-03    rms(broyden)= 0.36281E-03
  rms(prec ) = 0.70652E-03
  weight for this iteration     100.00

 eigenvalues of (default mixing * dielectric matrix)
  average eigenvalue GAMMA=   2.2476
  7.4822  3.5208  2.5183  2.5183  0.5033  1.4698  1.4698  0.9428  1.0254  1.0254

 Free energy of the ion-electron system (eV)
  ---------------------------------------------------
  alpha Z        PSCENC =         0.40002888
  Ewald energy   TEWEN  =        49.79200601
  -1/2 Hartree   DENC   =      -540.95921280
  -exchange  EXHF       =         0.00000000
  -V(xc)+E(xc)   XCENC  =        38.83958743
  PAW double counting   =       594.83318559     -597.07059513
  entropy T*S    EENTRO =        -0.00000000
  eigenvalues    EBANDS =      -137.90196295
  atomic energy  EATOM  =       579.39041991
  ---------------------------------------------------
  free energy    TOTEN  =       -12.67654305 eV

  energy without entropy =      -12.67654305  energy(sigma->0) =      -12.67654305


--------------------------------------------------------------------------------------------------------




----------------------------------------- Iteration    1(  16)  ---------------------------------------


    POTLOK:  cpu time    1.02: real time    1.02
    SETDIJ:  cpu time    0.00: real time    0.01
    EDDIAG:  cpu time    0.12: real time    0.12
  RMM-DIIS:  cpu time    0.26: real time    0.26
    ORTHCH:  cpu time    0.00: real time    0.01
       DOS:  cpu time    0.00: real time    0.00
    CHARGE:  cpu time    0.11: real time    0.11
    MIXING:  cpu time    0.07: real time    0.07
    --------------------------------------------
      LOOP:  cpu time    1.58: real time    1.59

 eigenvalue-minimisations  :     9
 total energy-change (2. order) :-0.1807167E-03  (-0.1326599E-05)
 number of electron      10.0000005 magnetization 
 augmentation part        0.5493781 magnetization 

 Broyden mixing:
  rms(total) = 0.35287E-03    rms(broyden)= 0.35207E-03
  rms(prec ) = 0.50579E-03
  weight for this iteration     100.00

 eigenvalues of (default mixing * dielectric matrix)
  average eigenvalue GAMMA=   2.2283
  8.1028  3.8108  2.5738  2.4733  0.5033  1.4616  1.4616  0.9598  1.0598  1.0520
  1.0520

 Free energy of the ion-electron system (eV)
  ---------------------------------------------------
  alpha Z        PSCENC =         0.40002888
  Ewald energy   TEWEN  =        49.79200601
  -1/2 Hartree   DENC   =      -540.95114820
  -exchange  EXHF       =         0.00000000
  -V(xc)+E(xc)   XCENC  =        38.83890927
  PAW double counting   =       594.71976961     -596.95704642
  entropy T*S    EENTRO =        -0.00000000
  eigenvalues    EBANDS =      -137.90966283
  atomic energy  EATOM  =       579.39041991
  ---------------------------------------------------
  free energy    TOTEN  =       -12.67672377 eV

  energy without entropy =      -12.67672377  energy(sigma->0) =      -12.67672377


--------------------------------------------------------------------------------------------------------




----------------------------------------- Iteration    1(  17)  ---------------------------------------


    POTLOK:  cpu time    1.01: real time    1.02
    SETDIJ:  cpu time    0.01: real time    0.01
    EDDIAG:  cpu time    0.12: real time    0.12
  RMM-DIIS:  cpu time    0.31: real time    0.31
    ORTHCH:  cpu time    0.01: real time    0.01
       DOS:  cpu time    0.00: real time    0.00
    --------------------------------------------
      LOOP:  cpu time    1.46: real time    1.46

 eigenvalue-minimisations  :    10
 total energy-change (2. order) :-0.2482583E-04  (-0.2541085E-06)
 number of electron      10.0000005 magnetization 
 augmentation part        0.5493781 magnetization 

 Free energy of the ion-electron system (eV)
  ---------------------------------------------------
  alpha Z        PSCENC =         0.40002888
  Ewald energy   TEWEN  =        49.79200601
  -1/2 Hartree   DENC   =      -540.94768790
  -exchange  EXHF       =         0.00000000
  -V(xc)+E(xc)   XCENC  =        38.83858354
  PAW double counting   =       594.75202095     -596.98928217
  entropy T*S    EENTRO =        -0.00000000
  eigenvalues    EBANDS =      -137.91283782
  atomic energy  EATOM  =       579.39041991
  ---------------------------------------------------
  free energy    TOTEN  =       -12.67674860 eV

  energy without entropy =      -12.67674860  energy(sigma->0) =      -12.67674860


--------------------------------------------------------------------------------------------------------




 average (electrostatic) potential at core
  the test charge radii are     0.6991  0.7215
  (the norm of the test charge is              1.0000)
       1 -62.7367       2 -82.6182
 
 
 
 E-fermi :  -8.3111     XC(G=0):  -0.6200     alpha+bet : -0.1603


 k-point   1 :       0.0000    0.0000    0.0000
  band No.  band energies     occupation 
      1     -25.8566      2.00000
      2     -14.2063      2.00000
      3      -9.8039      2.00000
      4      -9.8032      2.00000
      5      -9.2864      2.00000
      6      -3.9942      0.00000
      7      -3.9934      0.00000
      8      -0.2325      0.00000
      9       0.7777      0.00000


--------------------------------------------------------------------------------------------------------


 soft charge-density along one line, spin component           1
         0         1         2         3         4         5         6         7         8         9
 total charge-density along one line
 
 pseudopotential strength for first ion, spin component:           1
 10.450  13.903  -0.000   0.013   0.000   0.000  -0.040  -0.000
 13.903  18.496  -0.000   0.017   0.000   0.000  -0.052  -0.000
 -0.000  -0.000  -4.626   0.000   0.000   9.075  -0.000  -0.000
  0.013   0.017   0.000  -4.606   0.000  -0.000   9.033  -0.000
  0.000   0.000   0.000   0.000  -4.626  -0.000  -0.000   9.075
  0.000   0.000   9.075  -0.000  -0.000 -19.957   0.000   0.000
 -0.040  -0.052  -0.000   9.033  -0.000   0.000 -19.864   0.000
 -0.000  -0.000  -0.000  -0.000   9.075   0.000   0.000 -19.957
 total augmentation occupancy for first ion, spin component:           1
  3.396  -1.017   0.000   0.829   0.000   0.000   0.135   0.000
 -1.017   0.698   0.000  -0.826   0.000   0.000  -0.089   0.000
  0.000   0.000   0.603   0.000   0.000   0.030   0.000   0.000
  0.829  -0.826   0.000   1.480   0.000   0.000   0.109   0.000
  0.000   0.000   0.000   0.000   0.603   0.000   0.000   0.031
  0.000   0.000   0.030   0.000   0.000   0.002   0.000   0.000
  0.135  -0.089   0.000   0.109   0.000   0.000   0.011   0.000
  0.000   0.000   0.000   0.000   0.031   0.000   0.000   0.002


------------------------ aborting loop because EDIFF is reached ----------------------------------------


    CHARGE:  cpu time    0.10: real time    0.11
    FORLOC:  cpu time    0.08: real time    0.08
    FORNL :  cpu time    0.06: real time    0.06
    STRESS:  cpu time    0.37: real time    0.37
    FORCOR:  cpu time    1.22: real time    1.23
    FORHAR:  cpu time    0.28: real time    0.28
    MIXING:  cpu time    0.06: real time    0.06

  FORCE on cell =-STRESS in cart. coord.  units (eV):
  Direction    XX          YY          ZZ          XY          YZ          ZX
  --------------------------------------------------------------------------------------
  Alpha Z     0.40003     0.40003     0.40003
  Ewald     -62.91846   -66.77707   179.48754    -0.00000     0.00000     0.00000
  Hartree   146.06419   142.31530   252.55209    -0.00000    -0.00000    -0.00000
  E(xc)     -42.35363   -42.35327   -41.34588     0.00000    -0.00000    -0.00000
  Local    -214.75735  -207.14459  -557.71652     0.00000     0.00000    -0.00000
  n-local   -15.66203   -15.65837   -22.76323     0.00000    -0.00000    -0.00000
  augment     5.98688     5.98631     5.85616    -0.00000     0.00000    -0.00000
  Kinetic   182.44227   182.44651   165.71242    -0.00000    -0.00000     0.00000
  Fock        0.00000     0.00000     0.00000     0.00000     0.00000     0.00000
  -------------------------------------------------------------------------------------
  Total      -0.79809    -0.78515   -17.81740     0.00000     0.00000     0.00000
  in kB      -1.17061    -1.15164   -26.13406     0.00000     0.00000     0.00000
  external pressure =       -9.49 kB  Pullay stress =        0.00 kB


 VOLUME and BASIS-vectors are now :
 -----------------------------------------------------------------------------
  energy-cutoff  :      400.00
  volume of cell :     1092.32
      direct lattice vectors                 reciprocal lattice vectors
    10.100000000  0.000000000  0.000000000     0.099009901  0.000000000  0.000000000
     0.000000000 10.300000000  0.000000000     0.000000000  0.097087379  0.000000000
     0.000000000  0.000000000 10.500000000     0.000000000  0.000000000  0.095238095

  length of vectors
    10.100000000 10.300000000 10.500000000     0.099009901  0.097087379  0.095238095


 FORCES acting on ions
    electron-ion (+dipol)            ewald-force                    non-local-force                 convergence-correction
 -----------------------------------------------------------------------------------------------
   -.104E-14 0.996E-14 0.161E+03   -.241E-16 -.618E-17 -.175E+03   0.000E+00 0.000E+00 0.255E+02   0.346E-14 0.629E-14 0.106E-01
   0.265E-14 0.481E-14 -.144E+03   0.556E-16 0.206E-16 0.175E+03   0.000E+00 0.000E+00 -.429E+02   0.776E-14 0.222E-13 0.223E-02
 -----------------------------------------------------------------------------------------------
   0.161E-14 0.148E-13 0.175E+02   0.315E-16 0.144E-16 0.000E+00   0.000E+00 0.000E+00 -.175E+02   0.112E-13 0.285E-13 0.128E-01
 
 
 POSITION                                       TOTAL-FORCE (eV/Angst)
 -----------------------------------------------------------------------------------
      0.00000      0.00000      0.00000         0.000000      0.000000     12.248370
      0.00000      0.00000      1.40000         0.000000      0.000000    -12.248370
 -----------------------------------------------------------------------------------
    total drift:                                0.000000      0.000000     -0.003909


--------------------------------------------------------------------------------------------------------



  FREE ENERGIE OF THE ION-ELECTRON SYSTEM (eV)
  ---------------------------------------------------
  free  energy   TOTEN  =       -12.67674860 eV

  energy  without entropy=      -12.67674860  energy(sigma->0) =      -12.67674860
 


--------------------------------------------------------------------------------------------------------


    POTLOK:  cpu time    0.92: real time    0.92


--------------------------------------------------------------------------------------------------------


     LOOP+:  cpu time   29.40: real time   29.43
    4ORBIT:  cpu time    0.00: real time    0.00

 total amount of memory used by VASP on root node   140193. kBytes
========================================================================

   base      :      30000. kBytes
   nonl-proj :       3171. kBytes
   fftplans  :      37440. kBytes
   grid      :      66720. kBytes
   one-center:          6. kBytes
   wavefun   :       2856. kBytes
 
  
  
 General timing and accounting informations for this job:
 ========================================================
  
                  Total CPU time used (sec):       31.768
                            User time (sec):       31.584
                          System time (sec):        0.184
                         Elapsed time (sec):       31.801
  
                   Maximum memory used (kb):      226112.
                   Average memory used (kb):           0.
  
                          Minor page faults:        45849
                          Major page faults:            0
                 Voluntary context switches:            1
