 vasp.5.3.3 18Dez12 (build Sep  7 2015 22:32:56) complex                        
  
 executed on             LinuxIFC date 2002.02.05  01:20:53
 running on    1 total cores
 distrk:  each k-point on    1 cores,    1 groups
 distr:  one band on NCORES_PER_BAND=   1 cores,    1 groups


--------------------------------------------------------------------------------------------------------


 INCAR:
 POTCAR:    PAW_PBE C 08Apr2002                   
 POTCAR:    PAW_PBE O 08Apr2002                   
 POTCAR:    PAW_PBE C 08Apr2002                   
   VRHFIN =C: s2p2                                                              
   LEXCH  = PE                                                                  
   EATOM  =   147.1560 eV,   10.8157 Ry                                         
                                                                                
   TITEL  = PAW_PBE C 08Apr2002                                                 
   LULTRA =        F    use ultrasoft PP ?                                      
   IUNSCR =        1    unscreen: 0-lin 1-nonlin 2-no                           
   RPACOR =    1.200    partial core radius                                     
   POMASS =   12.011; ZVAL   =    4.000    mass and valenz                      
   RCORE  =    1.500    outmost cutoff radius                                   
   RWIGS  =    1.630; RWIGS  =    0.863    wigner-seitz radius (au A)           
   ENMAX  =  400.000; ENMIN  =  300.000 eV                                      
   ICORE  =        2    local potential                                         
   LCOR   =        T    correct aug charges                                     
   LPAW   =        T    paw PP                                                  
   EAUG   =  644.873                                                            
   DEXC   =    0.000                                                            
   RMAX   =    1.529    core radius for proj-oper                               
   RAUG   =    1.300    factor for augmentation sphere                          
   RDEP   =    1.501    radius for radial grids                                 
   RDEPT  =    1.300    core radius for aug-charge                              
                                                                                
   Atomic configuration                                                         
    4 entries                                                                   
     n  l   j            E        occ.                                          
     1  0  0.50      -273.3789   2.0000                                         
     2  0  0.50       -13.7508   2.0000                                         
     2  1  0.50        -5.2854   2.0000                                         
     3  2  1.50        -5.4423   0.0000                                         
   Description                                                                  
     l       E           TYP  RCUT    TYP  RCUT                                 
     0    -13.7508458     23  1.200                                             
     0     -8.2022199     23  1.200                                             
     1     -5.2854383     23  1.500                                             
     1     34.0145650     23  1.500                                             
     2     -5.4423304      7  1.500                                             
  local pseudopotential read in
  partial core-charges read in
  partial kinetic energy density read in
  atomic valenz-charges read in
  non local Contribution for L=           0  read in
    real space projection operators read in
  non local Contribution for L=           0  read in
    real space projection operators read in
  non local Contribution for L=           1  read in
    real space projection operators read in
  non local Contribution for L=           1  read in
    real space projection operators read in
    PAW grid and wavefunctions read in
 
   number of l-projection  operators is LMAX  =           4
   number of lm-projection operators is LMMAX =           8
 
 POTCAR:    PAW_PBE O 08Apr2002                   
   VRHFIN =O: s2p4                                                              
   LEXCH  = PE                                                                  
   EATOM  =   432.3788 eV,   31.7789 Ry                                         
                                                                                
   TITEL  = PAW_PBE O 08Apr2002                                                 
   LULTRA =        F    use ultrasoft PP ?                                      
   IUNSCR =        1    unscreen: 0-lin 1-nonlin 2-no                           
   RPACOR =    1.200    partial core radius                                     
   POMASS =   16.000; ZVAL   =    6.000    mass and valenz                      
   RCORE  =    1.520    outmost cutoff radius                                   
   RWIGS  =    1.550; RWIGS  =    0.820    wigner-seitz radius (au A)           
   ENMAX  =  400.000; ENMIN  =  300.000 eV                                      
   ICORE  =        2    local potential                                         
   LCOR   =        T    correct aug charges                                     
   LPAW   =        T    paw PP                                                  
   EAUG   =  605.392                                                            
   DEXC   =    0.000                                                            
   RMAX   =    1.553    core radius for proj-oper                               
   RAUG   =    1.300    factor for augmentation sphere                          
   RDEP   =    1.550    radius for radial grids                                 
   RDEPT  =    1.329    core radius for aug-charge                              
                                                                                
   Atomic configuration                                                         
    4 entries                                                                   
     n  l   j            E        occ.                                          
     1  0  0.50      -514.6923   2.0000                                         
     2  0  0.50       -23.9615   2.0000                                         
     2  1  0.50        -9.0305   4.0000                                         
     3  2  1.50        -9.5241   0.0000                                         
   Description                                                                  
     l       E           TYP  RCUT    TYP  RCUT                                 
     0    -23.9615318     23  1.200                                             
     0     -9.5240782     23  1.200                                             
     1     -9.0304911     23  1.520                                             
     1      8.1634956     23  1.520                                             
     2     -9.5240782      7  1.500                                             
  local pseudopotential read in
  partial core-charges read in
  partial kinetic energy density read in
  kinetic energy density of atom read in
  atomic valenz-charges read in
  non local Contribution for L=           0  read in
    real space projection operators read in
  non local Contribution for L=           0  read in
    real space projection operators read in
  non local Contribution for L=           1  read in
    real space projection operators read in
  non local Contribution for L=           1  read in
    real space projection operators read in
    PAW grid and wavefunctions read in
 
   number of l-projection  operators is LMAX  =           4
   number of lm-projection operators is LMMAX =           8
 
  PAW_PBE C 08Apr2002                   :
 energy of atom  1       EATOM= -147.1560
 kinetic energy error for atom=    0.0288 (will be added to EATOM!!)
  PAW_PBE O 08Apr2002                   :
 energy of atom  2       EATOM= -432.3788
 kinetic energy error for atom=    0.1156 (will be added to EATOM!!)
 
 
 POSCAR: CO molecule in a box                    
  positions in cartesian coordinates
  No initial velocities read in
 exchange correlation table for  LEXCH =        8
   RHO(1)=    0.500       N(1)  =     2000
   RHO(2)=  100.500       N(2)  =     4000
 


--------------------------------------------------------------------------------------------------------


 ion  position               nearest neighbor table
   1  0.000  0.000  0.000-
   2  0.000  0.000  0.495-
 
  LATTYP: Found a simple orthorhombic cell.
 ALAT       =    10.1000000000
 B/A-ratio  =     1.0198019802
 C/A-ratio  =     1.0396039604
  
  Lattice vectors:
  
 A1 = (  10.1000000000,   0.0000000000,   0.0000000000)
 A2 = (   0.0000000000,  10.3000000000,   0.0000000000)
 A3 = (   0.0000000000,   0.0000000000,  10.5000000000)


Analysis of symmetry for initial positions (statically):
=====================================================================
 Subroutine PRICEL returns:
 Original cell was already a primitive cell.
 

 Routine SETGRP: Setting up the symmetry group for a 
 simple orthorhombic supercell.


 Subroutine GETGRP returns: Found  4 space group operations
 (whereof  4 operations were pure point group operations)
 out of a pool of  8 trial point group operations.


The static configuration has the point symmetry C_2v.


Analysis of symmetry for dynamics (positions and initial velocities):
=====================================================================
 Subroutine PRICEL returns:
 Original cell was already a primitive cell.
 

 Routine SETGRP: Setting up the symmetry group for a 
 simple orthorhombic supercell.


 Subroutine GETGRP returns: Found  4 space group operations
 (whereof  4 operations were pure point group operations)
 out of a pool of  8 trial point group operations.


The dynamic configuration has the point symmetry C_2v.


Analysis of constrained symmetry for selective dynamics:
=====================================================================
 Subroutine PRICEL returns:
 Original cell was already a primitive cell.
 

 Routine SETGRP: Setting up the symmetry group for a 
 simple orthorhombic supercell.


 Subroutine GETGRP returns: Found  4 space group operations
 (whereof  4 operations were pure point group operations)
 out of a pool of  8 trial point group operations.


The constrained configuration has the point symmetry C_2v.


 irot  :   1
 --------------------------------------------------------------------
 isymop:   1   0   0
           0   1   0
           0   0   1

 gtrans:     0.0000000     0.0000000     0.0000000

 ptrans:     0.0000000     0.0000000     0.0000000
 rotmap:
 (   1->   1)  (   2->   2) 


 irot  :   2
 --------------------------------------------------------------------
 isymop:  -1   0   0
           0  -1   0
           0   0   1

 gtrans:     0.0000000     0.0000000     0.0000000

 ptrans:     0.0000000     0.0000000     0.0000000
 rotmap:
 (   1->   1)  (   2->   2) 


 irot  :   3
 --------------------------------------------------------------------
 isymop:   1   0   0
           0  -1   0
           0   0   1

 gtrans:     0.0000000     0.0000000     0.0000000

 ptrans:     0.0000000     0.0000000     0.0000000
 rotmap:
 (   1->   1)  (   2->   2) 


 irot  :   4
 --------------------------------------------------------------------
 isymop:  -1   0   0
           0   1   0
           0   0   1

 gtrans:     0.0000000     0.0000000     0.0000000

 ptrans:     0.0000000     0.0000000     0.0000000
 rotmap:
 (   1->   1)  (   2->   2) 
 
 
 KPOINTS: Gamma-point only                        

Automatic generation of k-mesh.
Space group operators:
 irot       det(A)        alpha          n_x          n_y          n_z        tau_x        tau_y        tau_z
    1     1.000000     0.000000     1.000000     0.000000     0.000000     0.000000     0.000000     0.000000
    2     1.000000   180.000000     0.000000     0.000000     1.000000     0.000000     0.000000     0.000000
    3    -1.000000   180.000000     0.000000     1.000000     0.000000     0.000000     0.000000     0.000000
    4    -1.000000   180.000000     1.000000     0.000000     0.000000     0.000000     0.000000     0.000000
 
 Subroutine IBZKPT returns following result:
 ===========================================
 
 Found      1 irreducible k-points:
 
 Following reciprocal coordinates:
            Coordinates               Weight
  0.000000  0.000000  0.000000      1.000000
 
 Following cartesian coordinates:
            Coordinates               Weight
  0.000000  0.000000  0.000000      1.000000
 


--------------------------------------------------------------------------------------------------------




 Dimension of arrays:
   k-points           NKPTS =      1   k-points in BZ     NKDIM =      1   number of bands    NBANDS=      9
   number of dos      NEDOS =    301   number of ions     NIONS =      2
   non local maximal  LDIM  =      4   non local SUM 2l+1 LMDIM =      8
   total plane-waves  NPLWV = 135000
   max r-space proj   IRMAX =      1   max aug-charges    IRDMAX=   1803
   dimension x,y,z NGX =    50 NGY =   50 NGZ =   54
   dimension x,y,z NGXF=   100 NGYF=  100 NGZF=  108
   support grid    NGXF=   100 NGYF=  100 NGZF=  108
   ions per type =               1   1
 NGX,Y,Z   is equivalent  to a cutoff of   8.23,  8.07,  8.55 a.u.
 NGXF,Y,Z  is equivalent  to a cutoff of  16.46, 16.14, 17.10 a.u.


 I would recommend the setting:
   dimension x,y,z NGX =    49 NGY =   50 NGZ =   51
 SYSTEM =  Hello World                             
 POSCAR =  CO molecule in a box                    

 Startparameter for this run:
   NWRITE =      2    write-flag & timer
   PREC   = normal    normal or accurate (medium, high low for compatibility)
   ISTART =      0    job   : 0-new  1-cont  2-samecut
   ICHARG =      2    charge: 1-file 2-atom 10-const
   ISPIN  =      1    spin polarized calculation?
   LNONCOLLINEAR =      F non collinear calculations
   LSORBIT =      F    spin-orbit coupling
   INIWAV =      1    electr: 0-lowe 1-rand  2-diag
   LASPH  =      F    aspherical Exc in radial PAW
   METAGGA=      F    non-selfconsistent MetaGGA calc.

 Electronic Relaxation 1
   ENCUT  =  400.0 eV  29.40 Ry    5.42 a.u.  16.47 16.80 17.12*2*pi/ulx,y,z
   ENINI  =  400.0     initial cutoff
   ENAUG  =  644.9 eV  augmentation charge cutoff
   NELM   =     60;   NELMIN=  2; NELMDL=  0     # of ELM steps 
   EDIFF  = 0.1E-03   stopping-criterion for ELM
   LREAL  =      F    real-space projection
   NLSPLINE    = F    spline interpolate recip. space projectors
   LCOMPAT=      F    compatible to vasp.4.4
   GGA_COMPAT  = T    GGA compatible to vasp.4.4-vasp.4.6
   LMAXPAW     = -100 max onsite density
   LMAXMIX     =    2 max onsite mixed and CHGCAR
   VOSKOWN=      0    Vosko Wilk Nusair interpolation
   ROPT   =    0.00000   0.00000
 Ionic relaxation
   EDIFFG = -.1E-01   stopping-criterion for IOM
   NSW    =      0    number of steps for IOM
   NBLOCK =      1;   KBLOCK =      1    inner block; outer block 
   IBRION =     -1    ionic relax: 0-MD 1-quasi-New 2-CG
   NFREE  =      0    steps in history (QN), initial steepest desc. (CG)
   ISIF   =      2    stress and relaxation
   IWAVPR =     10    prediction:  0-non 1-charg 2-wave 3-comb
   ISYM   =      2    0-nonsym 1-usesym 2-fastsym
   LCORR  =      T    Harris-Foulkes like correction to forces

   POTIM  = 0.5000    time-step for ionic-motion
   TEIN   =    0.0    initial temperature
   TEBEG  =    0.0;   TEEND  =   0.0 temperature during run
   SMASS  =  -3.00    Nose mass-parameter (am)
   estimated Nose-frequenzy (Omega)   =  0.10E-29 period in steps =****** mass=  -0.233E-26a.u.
   SCALEE = 1.0000    scale energy and forces
   NPACO  =    256;   APACO  = 16.0  distance and # of slots for P.C.
   PSTRESS=    0.0 pullay stress

  Mass of Ions in am
   POMASS =  12.01 16.00
  Ionic Valenz
   ZVAL   =   4.00  6.00
  Atomic Wigner-Seitz radii
   RWIGS  =  -1.00 -1.00
  virtual crystal weights 
   VCA    =   1.00  1.00
   NELECT =      10.0000    total number of electrons
   NUPDOWN=      -1.0000    fix difference up-down

 DOS related values:
   EMIN   =  10.00;   EMAX   =-10.00  energy-range for DOS
   EFERMI =   0.00
   ISMEAR =     0;   SIGMA  =   0.20  broadening in eV -4-tet -1-fermi 0-gaus

 Electronic relaxation 2 (details)
   IALGO  =     68    algorithm
   LDIAG  =      T    sub-space diagonalisation (order eigenvalues)
   LSUBROT=      T    optimize rotation matrix (better conditioning)
   TURBO    =      0    0=normal 1=particle mesh
   IRESTART =      0    0=no restart 2=restart with 2 vectors
   NREBOOT  =      0    no. of reboots
   NMIN     =      0    reboot dimension
   EREF     =   0.00    reference energy to select bands
   IMIX   =      4    mixing-type and parameters
     AMIX     =   0.40;   BMIX     =  1.00
     AMIX_MAG =   1.60;   BMIX_MAG =  1.00
     AMIN     =   0.10
     WC   =   100.;   INIMIX=   1;  MIXPRE=   1;  MAXMIX= -45

 Intra band minimization:
   WEIMIN = 0.0000     energy-eigenvalue tresh-hold
   EBREAK =  0.28E-05  absolut break condition
   DEPER  =   0.30     relativ break condition  

   TIME   =   0.40     timestep for ELM

  volume/ion in A,a.u.               =     546.16      3685.65
  Fermi-wavevector in a.u.,A,eV,Ry     =   0.342472  0.647179  1.595791  0.117287
  Thomas-Fermi vector in A             =   1.247862
 
 Write flags
   LWAVE  =      F    write WAVECAR
   LCHARG =      F    write CHGCAR
   LVTOT  =      F    write LOCPOT, total local potential
   LVHAR  =      F    write LOCPOT, Hartree potential only
   LELF   =      F    write electronic localiz. function (ELF)
   LORBIT =      0    0 simple, 1 ext, 2 COOP (PROOUT)


 Dipole corrections
   LMONO  =      F    monopole corrections only (constant potential shift)
   LDIPOL =      F    correct potential (dipole corrections)
   IDIPOL =      0    1-x, 2-y, 3-z, 4-all directions 
   EPSILON=  1.0000000 bulk dielectric constant

 Exchange correlation treatment:
   GGA     =    --    GGA type
   LEXCH   =     8    internal setting for exchange type
   VOSKOWN=      0    Vosko Wilk Nusair interpolation
   LHFCALC =     F    Hartree Fock is set to
   LHFONE  =     F    Hartree Fock one center treatment
   AEXX    =    0.0000 exact exchange contribution

 Linear response parameters
   LEPSILON=     F    determine dielectric tensor
   LRPA    =     F    only Hartree local field effects (RPA)
   LNABLA  =     F    use nabla operator in PAW spheres
   LVEL    =     F    velocity operator in full k-point grid
   LINTERFAST=   F  fast interpolation
   KINTER  =     0    interpolate to denser k-point grid
   CSHIFT  =0.1000    complex shift for real part using Kramers Kronig
   OMEGAMAX=  -1.0    maximum frequency
   DEG_THRESHOLD= 0.2000000E-02 threshold for treating states as degnerate
   RTIME   =    0.100 relaxation time in fs

 Orbital magnetization related:
   ORBITALMAG=     F  switch on orbital magnetization
   LCHIMAG   =     F  perturbation theory with respect to B field
   DQ        =  0.001000  dq finite difference perturbation B field



--------------------------------------------------------------------------------------------------------


 Static calculation
 charge density and potential will be updated during run
 non-spin polarized calculation
 RMM-DIIS sequential band-by-band and
  variant of blocked Davidson during initial phase
 perform sub-space diagonalisation
    before iterative eigenvector-optimisation
 modified Broyden-mixing scheme, WC =      100.0
 initial mixing is a Kerker type mixing with AMIX =  0.4000 and BMIX =      1.0000
 Hartree-type preconditioning will be used
 using additional bands            4
 reciprocal scheme for non local part
 use partial core corrections
 calculate Harris-corrections to forces 
   (improved forces if not selfconsistent)
 use gradient corrections 
 use of overlap-Matrix (Vanderbilt PP)
 Gauss-broadening in eV      SIGMA  =   0.20


--------------------------------------------------------------------------------------------------------


  energy-cutoff  :      400.00
  volume of cell :     1092.32
      direct lattice vectors                 reciprocal lattice vectors
    10.100000000  0.000000000  0.000000000     0.099009901  0.000000000  0.000000000
     0.000000000 10.300000000  0.000000000     0.000000000  0.097087379  0.000000000
     0.000000000  0.000000000 10.500000000     0.000000000  0.000000000  0.095238095

  length of vectors
    10.100000000 10.300000000 10.500000000     0.099009901  0.097087379  0.095238095


 
 k-points in units of 2pi/SCALE and weight: Gamma-point only                        
   0.00000000  0.00000000  0.00000000       1.000
 
 k-points in reciprocal lattice and weights: Gamma-point only                        
   0.00000000  0.00000000  0.00000000       1.000
 
 position of ions in fractional coordinates (direct lattice) 
   0.00000000  0.00000000  0.00000000
   0.00000000  0.00000000  0.49523810
 
 position of ions in cartesian coordinates  (Angst):
   0.00000000  0.00000000  0.00000000
   0.00000000  0.00000000  5.20000000
 


--------------------------------------------------------------------------------------------------------


 k-point  1 :   0.0000 0.0000 0.0000  plane waves:   19819

 maximum and minimum number of plane-waves per node :     19819    19819

 maximum number of plane-waves:     19819
 maximum index in each direction: 
   IXMAX=   16   IYMAX=   16   IZMAX=   17
   IXMIN=  -16   IYMIN=  -16   IZMIN=  -17

 WARNING: aliasing errors must be expected set NGX to  66 to avoid them
 WARNING: aliasing errors must be expected set NGY to  66 to avoid them
 WARNING: aliasing errors must be expected set NGZ to  70 to avoid them
 aliasing errors are usually negligible using standard VASP settings
 and one can safely disregard these warnings

 serial   3D FFT for wavefunctions
 parallel 3D FFT for charge:
    minimum data exchange during FFTs selected (reduces bandwidth)


 total amount of memory used by VASP on root node   140193. kBytes
========================================================================

   base      :      30000. kBytes
   nonl-proj :       3171. kBytes
   fftplans  :      37440. kBytes
   grid      :      66720. kBytes
   one-center:          6. kBytes
   wavefun   :       2856. kBytes
 
 Broyden mixing: mesh for mixing (old mesh)
   NGX = 33   NGY = 33   NGZ = 35
  (NGX  =100   NGY  =100   NGZ  =108)
  gives a total of  38115 points

 initial charge density was supplied:
 charge density of overlapping atoms calculated
 number of electron      10.0000000 magnetization 
 keeping initial charge density in first step


--------------------------------------------------------------------------------------------------------


 Maximum index for augmentation-charges         1514 (set IRDMAX)


--------------------------------------------------------------------------------------------------------


 First call to EWALD:  gamma=   0.172
 Maximum number of real-space cells 3x 3x 3
 Maximum number of reciprocal cells 3x 3x 3

 FEWALD executed in parallel
    FEWALD:  cpu time    0.00: real time    0.00


----------------------------------------- Iteration    1(   1)  ---------------------------------------


    POTLOK:  cpu time    0.76: real time    0.76
    SETDIJ:  cpu time    0.00: real time    0.00
     EDDAV:  cpu time    0.34: real time    0.34
       DOS:  cpu time    0.00: real time    0.00
    --------------------------------------------
      LOOP:  cpu time    1.10: real time    1.10

 eigenvalue-minimisations  :    26
 total energy-change (2. order) : 0.5380502E+02  (-0.1913155E+03)
 number of electron      10.0000000 magnetization 
 augmentation part       10.0000000 magnetization 

 Free energy of the ion-electron system (eV)
  ---------------------------------------------------
  alpha Z        PSCENC =         0.40002888
  Ewald energy   TEWEN  =      -108.26781391
  -1/2 Hartree   DENC   =      -385.51237273
  -exchange  EXHF       =         0.00000000
  -V(xc)+E(xc)   XCENC  =        36.69053480
  PAW double counting   =       455.07152327     -457.43959975
  entropy T*S    EENTRO =        -0.00167225
  eigenvalues    EBANDS =       -66.52602411
  atomic energy  EATOM  =       579.39041991
  ---------------------------------------------------
  free energy    TOTEN  =        53.80502411 eV

  energy without entropy =       53.80669636  energy(sigma->0) =       53.80586023


--------------------------------------------------------------------------------------------------------




----------------------------------------- Iteration    1(   2)  ---------------------------------------


     EDDAV:  cpu time    0.43: real time    0.43
       DOS:  cpu time    0.00: real time    0.00
    --------------------------------------------
      LOOP:  cpu time    0.43: real time    0.43

 eigenvalue-minimisations  :    35
 total energy-change (2. order) :-0.4356207E+02  (-0.4330253E+02)
 number of electron      10.0000000 magnetization 
 augmentation part       10.0000000 magnetization 

 Free energy of the ion-electron system (eV)
  ---------------------------------------------------
  alpha Z        PSCENC =         0.40002888
  Ewald energy   TEWEN  =      -108.26781391
  -1/2 Hartree   DENC   =      -385.51237273
  -exchange  EXHF       =         0.00000000
  -V(xc)+E(xc)   XCENC  =        36.69053480
  PAW double counting   =       455.07152327     -457.43959975
  entropy T*S    EENTRO =        -0.00000005
  eigenvalues    EBANDS =      -110.08976699
  atomic energy  EATOM  =       579.39041991
  ---------------------------------------------------
  free energy    TOTEN  =        10.24295344 eV

  energy without entropy =       10.24295349  energy(sigma->0) =       10.24295346


--------------------------------------------------------------------------------------------------------




----------------------------------------- Iteration    1(   3)  ---------------------------------------


     EDDAV:  cpu time    0.27: real time    0.27
       DOS:  cpu time    0.00: real time    0.00
    --------------------------------------------
      LOOP:  cpu time    0.27: real time    0.27

 eigenvalue-minimisations  :    20
 total energy-change (2. order) :-0.1686090E+02  (-0.1686051E+02)
 number of electron      10.0000000 magnetization 
 augmentation part       10.0000000 magnetization 

 Free energy of the ion-electron system (eV)
  ---------------------------------------------------
  alpha Z        PSCENC =         0.40002888
  Ewald energy   TEWEN  =      -108.26781391
  -1/2 Hartree   DENC   =      -385.51237273
  -exchange  EXHF       =         0.00000000
  -V(xc)+E(xc)   XCENC  =        36.69053480
  PAW double counting   =       455.07152327     -457.43959975
  entropy T*S    EENTRO =        -0.00000000
  eigenvalues    EBANDS =      -126.95066528
  atomic energy  EATOM  =       579.39041991
  ---------------------------------------------------
  free energy    TOTEN  =        -6.61794481 eV

  energy without entropy =       -6.61794481  energy(sigma->0) =       -6.61794481


--------------------------------------------------------------------------------------------------------




----------------------------------------- Iteration    1(   4)  ---------------------------------------


     EDDAV:  cpu time    0.26: real time    0.26
       DOS:  cpu time    0.00: real time    0.00
    --------------------------------------------
      LOOP:  cpu time    0.26: real time    0.26

 eigenvalue-minimisations  :    18
 total energy-change (2. order) :-0.8455214E+00  (-0.8455002E+00)
 number of electron      10.0000000 magnetization 
 augmentation part       10.0000000 magnetization 

 Free energy of the ion-electron system (eV)
  ---------------------------------------------------
  alpha Z        PSCENC =         0.40002888
  Ewald energy   TEWEN  =      -108.26781391
  -1/2 Hartree   DENC   =      -385.51237273
  -exchange  EXHF       =         0.00000000
  -V(xc)+E(xc)   XCENC  =        36.69053480
  PAW double counting   =       455.07152327     -457.43959975
  entropy T*S    EENTRO =        -0.00000000
  eigenvalues    EBANDS =      -127.79618668
  atomic energy  EATOM  =       579.39041991
  ---------------------------------------------------
  free energy    TOTEN  =        -7.46346621 eV

  energy without entropy =       -7.46346621  energy(sigma->0) =       -7.46346621


--------------------------------------------------------------------------------------------------------




----------------------------------------- Iteration    1(   5)  ---------------------------------------


     EDDAV:  cpu time    0.34: real time    0.34
       DOS:  cpu time    0.00: real time    0.00
    CHARGE:  cpu time    0.06: real time    0.06
    MIXING:  cpu time    0.02: real time    0.02
    --------------------------------------------
      LOOP:  cpu time    0.43: real time    0.43

 eigenvalue-minimisations  :    26
 total energy-change (2. order) :-0.1694614E-01  (-0.1694613E-01)
 number of electron       9.9999995 magnetization 
 augmentation part        0.7927932 magnetization 

 Broyden mixing:
  rms(total) = 0.14454E+01    rms(broyden)= 0.14449E+01
  rms(prec ) = 0.24617E+01
  weight for this iteration     100.00

 Free energy of the ion-electron system (eV)
  ---------------------------------------------------
  alpha Z        PSCENC =         0.40002888
  Ewald energy   TEWEN  =      -108.26781391
  -1/2 Hartree   DENC   =      -385.51237273
  -exchange  EXHF       =         0.00000000
  -V(xc)+E(xc)   XCENC  =        36.69053480
  PAW double counting   =       455.07152327     -457.43959975
  entropy T*S    EENTRO =        -0.00000000
  eigenvalues    EBANDS =      -127.81313282
  atomic energy  EATOM  =       579.39041991
  ---------------------------------------------------
  free energy    TOTEN  =        -7.48041234 eV

  energy without entropy =       -7.48041234  energy(sigma->0) =       -7.48041234


--------------------------------------------------------------------------------------------------------




----------------------------------------- Iteration    1(   6)  ---------------------------------------


    POTLOK:  cpu time    0.64: real time    0.65
    SETDIJ:  cpu time    0.00: real time    0.00
    EDDIAG:  cpu time    0.05: real time    0.05
  RMM-DIIS:  cpu time    0.22: real time    0.22
    ORTHCH:  cpu time    0.00: real time    0.00
       DOS:  cpu time    0.00: real time    0.00
    CHARGE:  cpu time    0.05: real time    0.05
    MIXING:  cpu time    0.02: real time    0.02
    --------------------------------------------
      LOOP:  cpu time    0.99: real time    0.99

 eigenvalue-minimisations  :    20
 total energy-change (2. order) :-0.3219754E+02  (-0.1969819E+01)
 number of electron       9.9999987 magnetization 
 augmentation part       -0.0297019 magnetization 

 Broyden mixing:
  rms(total) = 0.37322E+01    rms(broyden)= 0.37305E+01
  rms(prec ) = 0.60496E+01
  weight for this iteration     100.00

 eigenvalues of (default mixing * dielectric matrix)
  average eigenvalue GAMMA=   0.2766
  0.2766

 Free energy of the ion-electron system (eV)
  ---------------------------------------------------
  alpha Z        PSCENC =         0.40002888
  Ewald energy   TEWEN  =      -108.26781391
  -1/2 Hartree   DENC   =      -420.85582268
  -exchange  EXHF       =         0.00000000
  -V(xc)+E(xc)   XCENC  =        38.40576331
  PAW double counting   =       521.91809167     -524.68639913
  entropy T*S    EENTRO =        -0.00000000
  eigenvalues    EBANDS =      -125.98221864
  atomic energy  EATOM  =       579.39041991
  ---------------------------------------------------
  free energy    TOTEN  =       -39.67795059 eV

  energy without entropy =      -39.67795059  energy(sigma->0) =      -39.67795059


--------------------------------------------------------------------------------------------------------




----------------------------------------- Iteration    1(   7)  ---------------------------------------


    POTLOK:  cpu time    0.67: real time    0.67
    SETDIJ:  cpu time    0.00: real time    0.00
    EDDIAG:  cpu time    0.06: real time    0.06
  RMM-DIIS:  cpu time    0.23: real time    0.23
    ORTHCH:  cpu time    0.00: real time    0.00
       DOS:  cpu time    0.00: real time    0.00
    CHARGE:  cpu time    0.07: real time    0.07
    MIXING:  cpu time    0.02: real time    0.02
    --------------------------------------------
      LOOP:  cpu time    1.06: real time    1.06

 eigenvalue-minimisations  :    19
 total energy-change (2. order) : 0.3864476E+02  (-0.1119131E+01)
 number of electron       9.9999998 magnetization 
 augmentation part        0.4029196 magnetization 

 Broyden mixing:
  rms(total) = 0.54868E+00    rms(broyden)= 0.54624E+00
  rms(prec ) = 0.77232E+00
  weight for this iteration     100.00

 eigenvalues of (default mixing * dielectric matrix)
  average eigenvalue GAMMA=   0.3162
  0.3162  0.3162

 Free energy of the ion-electron system (eV)
  ---------------------------------------------------
  alpha Z        PSCENC =         0.40002888
  Ewald energy   TEWEN  =      -108.26781391
  -1/2 Hartree   DENC   =      -397.24248135
  -exchange  EXHF       =         0.00000000
  -V(xc)+E(xc)   XCENC  =        37.34050651
  PAW double counting   =       481.47319674     -484.01236782
  entropy T*S    EENTRO =        -0.61637041
  eigenvalues    EBANDS =      -109.49831284
  atomic energy  EATOM  =       579.39041991
  ---------------------------------------------------
  free energy    TOTEN  =        -1.03319428 eV

  energy without entropy =       -0.41682387  energy(sigma->0) =       -0.72500907


--------------------------------------------------------------------------------------------------------




----------------------------------------- Iteration    1(   8)  ---------------------------------------


    POTLOK:  cpu time    0.69: real time    0.69
    SETDIJ:  cpu time    0.00: real time    0.00
    EDDIAG:  cpu time    0.06: real time    0.06
  RMM-DIIS:  cpu time    0.26: real time    0.26
    ORTHCH:  cpu time    0.00: real time    0.00
       DOS:  cpu time    0.00: real time    0.00
    CHARGE:  cpu time    0.06: real time    0.06
    MIXING:  cpu time    0.02: real time    0.02
    --------------------------------------------
      LOOP:  cpu time    1.10: real time    1.10

 eigenvalue-minimisations  :    22
 total energy-change (2. order) :-0.3097144E+00  (-0.6056596E-01)
 number of electron       9.9999995 magnetization 
 augmentation part        0.6794659 magnetization 

 Broyden mixing:
  rms(total) = 0.94927E+00    rms(broyden)= 0.94815E+00
  rms(prec ) = 0.17354E+01
  weight for this iteration     100.00

 eigenvalues of (default mixing * dielectric matrix)
  average eigenvalue GAMMA=   0.3426
  0.3340  0.3340  0.3598

 Free energy of the ion-electron system (eV)
  ---------------------------------------------------
  alpha Z        PSCENC =         0.40002888
  Ewald energy   TEWEN  =      -108.26781391
  -1/2 Hartree   DENC   =      -394.84231035
  -exchange  EXHF       =         0.00000000
  -V(xc)+E(xc)   XCENC  =        37.13648992
  PAW double counting   =       477.83542512     -480.31849538
  entropy T*S    EENTRO =        -0.16591482
  eigenvalues    EBANDS =      -112.51073802
  atomic energy  EATOM  =       579.39041991
  ---------------------------------------------------
  free energy    TOTEN  =        -1.34290866 eV

  energy without entropy =       -1.17699384  energy(sigma->0) =       -1.25995125


--------------------------------------------------------------------------------------------------------




----------------------------------------- Iteration    1(   9)  ---------------------------------------


    POTLOK:  cpu time    0.66: real time    0.66
    SETDIJ:  cpu time    0.00: real time    0.00
    EDDIAG:  cpu time    0.05: real time    0.05
  RMM-DIIS:  cpu time    0.24: real time    0.24
    ORTHCH:  cpu time    0.00: real time    0.00
       DOS:  cpu time    0.00: real time    0.00
    CHARGE:  cpu time    0.06: real time    0.06
    MIXING:  cpu time    0.03: real time    0.03
    --------------------------------------------
      LOOP:  cpu time    1.04: real time    1.04

 eigenvalue-minimisations  :    19
 total energy-change (2. order) :-0.4017800E+01  (-0.1052241E+00)
 number of electron       9.9999995 magnetization 
 augmentation part        0.7602931 magnetization 

 Broyden mixing:
  rms(total) = 0.13229E+01    rms(broyden)= 0.13228E+01
  rms(prec ) = 0.23122E+01
  weight for this iteration     100.00

 eigenvalues of (default mixing * dielectric matrix)
  average eigenvalue GAMMA=   1.6595
  3.1117  2.8851  0.3206  0.3206

 Free energy of the ion-electron system (eV)
  ---------------------------------------------------
  alpha Z        PSCENC =         0.40002888
  Ewald energy   TEWEN  =      -108.26781391
  -1/2 Hartree   DENC   =      -389.74155233
  -exchange  EXHF       =         0.00000000
  -V(xc)+E(xc)   XCENC  =        36.93092030
  PAW double counting   =       469.09596474     -471.52756538
  entropy T*S    EENTRO =        -0.00000000
  eigenvalues    EBANDS =      -121.64111039
  atomic energy  EATOM  =       579.39041991
  ---------------------------------------------------
  free energy    TOTEN  =        -5.36070818 eV

  energy without entropy =       -5.36070818  energy(sigma->0) =       -5.36070818


--------------------------------------------------------------------------------------------------------




----------------------------------------- Iteration    1(  10)  ---------------------------------------


    POTLOK:  cpu time    0.71: real time    0.71
    SETDIJ:  cpu time    0.00: real time    0.00
    EDDIAG:  cpu time    0.06: real time    0.06
  RMM-DIIS:  cpu time    0.25: real time    0.25
    ORTHCH:  cpu time    0.00: real time    0.00
       DOS:  cpu time    0.00: real time    0.00
    CHARGE:  cpu time    0.06: real time    0.06
    MIXING:  cpu time    0.03: real time    0.03
    --------------------------------------------
      LOOP:  cpu time    1.11: real time    1.11

 eigenvalue-minimisations  :    20
 total energy-change (2. order) :-0.4648553E+01  (-0.6717054E-01)
 number of electron       9.9999994 magnetization 
 augmentation part        0.7902233 magnetization 

 Broyden mixing:
  rms(total) = 0.14517E+01    rms(broyden)= 0.14517E+01
  rms(prec ) = 0.25055E+01
  weight for this iteration     100.00

 eigenvalues of (default mixing * dielectric matrix)
  average eigenvalue GAMMA=   1.3349
  3.4016  2.3554  0.3188  0.3188  0.2801

 Free energy of the ion-electron system (eV)
  ---------------------------------------------------
  alpha Z        PSCENC =         0.40002888
  Ewald energy   TEWEN  =      -108.26781391
  -1/2 Hartree   DENC   =      -387.44845265
  -exchange  EXHF       =         0.00000000
  -V(xc)+E(xc)   XCENC  =        36.98529830
  PAW double counting   =       472.49059061     -474.94179204
  entropy T*S    EENTRO =        -0.00000000
  eigenvalues    EBANDS =      -128.61754058
  atomic energy  EATOM  =       579.39041991
  ---------------------------------------------------
  free energy    TOTEN  =       -10.00926148 eV

  energy without entropy =      -10.00926148  energy(sigma->0) =      -10.00926148


--------------------------------------------------------------------------------------------------------




----------------------------------------- Iteration    1(  11)  ---------------------------------------


    POTLOK:  cpu time    0.68: real time    0.68
    SETDIJ:  cpu time    0.00: real time    0.00
    EDDIAG:  cpu time    0.05: real time    0.05
  RMM-DIIS:  cpu time    0.23: real time    0.23
    ORTHCH:  cpu time    0.00: real time    0.00
       DOS:  cpu time    0.00: real time    0.00
    CHARGE:  cpu time    0.05: real time    0.05
    MIXING:  cpu time    0.03: real time    0.03
    --------------------------------------------
      LOOP:  cpu time    1.05: real time    1.05

 eigenvalue-minimisations  :    22
 total energy-change (2. order) :-0.5577546E+01  (-0.5990016E-01)
 number of electron       9.9999994 magnetization 
 augmentation part        0.8157267 magnetization 

 Broyden mixing:
  rms(total) = 0.15632E+01    rms(broyden)= 0.15632E+01
  rms(prec ) = 0.26939E+01
  weight for this iteration     100.00

 eigenvalues of (default mixing * dielectric matrix)
  average eigenvalue GAMMA=   1.6785
  3.1085  3.1085  2.4481  0.3226  0.3226  0.7604

 Free energy of the ion-electron system (eV)
  ---------------------------------------------------
  alpha Z        PSCENC =         0.40002888
  Ewald energy   TEWEN  =      -108.26781391
  -1/2 Hartree   DENC   =      -386.15286760
  -exchange  EXHF       =         0.00000000
  -V(xc)+E(xc)   XCENC  =        37.14965768
  PAW double counting   =       482.05115086     -484.54916792
  entropy T*S    EENTRO =        -0.00000000
  eigenvalues    EBANDS =      -135.60821512
  atomic energy  EATOM  =       579.39041991
  ---------------------------------------------------
  free energy    TOTEN  =       -15.58680723 eV

  energy without entropy =      -15.58680723  energy(sigma->0) =      -15.58680723


--------------------------------------------------------------------------------------------------------




----------------------------------------- Iteration    1(  12)  ---------------------------------------


    POTLOK:  cpu time    0.69: real time    0.69
    SETDIJ:  cpu time    0.00: real time    0.00
    EDDIAG:  cpu time    0.06: real time    0.06
  RMM-DIIS:  cpu time    0.24: real time    0.24
    ORTHCH:  cpu time    0.00: real time    0.00
       DOS:  cpu time    0.00: real time    0.00
    CHARGE:  cpu time    0.06: real time    0.06
    MIXING:  cpu time    0.03: real time    0.03
    --------------------------------------------
      LOOP:  cpu time    1.08: real time    1.08

 eigenvalue-minimisations  :    20
 total energy-change (2. order) : 0.1111663E+02  (-0.1314700E+00)
 number of electron       9.9999995 magnetization 
 augmentation part        0.7796163 magnetization 

 Broyden mixing:
  rms(total) = 0.13925E+01    rms(broyden)= 0.13925E+01
  rms(prec ) = 0.23614E+01
  weight for this iteration     100.00

 eigenvalues of (default mixing * dielectric matrix)
  average eigenvalue GAMMA=   1.4200
  2.9399  2.9399  2.4935  0.3226  0.3226  0.7580  0.1635

 Free energy of the ion-electron system (eV)
  ---------------------------------------------------
  alpha Z        PSCENC =         0.40002888
  Ewald energy   TEWEN  =      -108.26781391
  -1/2 Hartree   DENC   =      -389.51692469
  -exchange  EXHF       =         0.00000000
  -V(xc)+E(xc)   XCENC  =        36.85955806
  PAW double counting   =       463.69445076     -466.09519618
  entropy T*S    EENTRO =        -0.00000000
  eigenvalues    EBANDS =      -120.93469571
  atomic energy  EATOM  =       579.39041991
  ---------------------------------------------------
  free energy    TOTEN  =        -4.47017288 eV

  energy without entropy =       -4.47017288  energy(sigma->0) =       -4.47017288


--------------------------------------------------------------------------------------------------------




----------------------------------------- Iteration    1(  13)  ---------------------------------------


    POTLOK:  cpu time    0.70: real time    0.71
    SETDIJ:  cpu time    0.00: real time    0.00
    EDDIAG:  cpu time    0.06: real time    0.06
  RMM-DIIS:  cpu time    0.30: real time    0.30
    ORTHCH:  cpu time    0.00: real time    0.00
       DOS:  cpu time    0.00: real time    0.00
    CHARGE:  cpu time    0.06: real time    0.06
    MIXING:  cpu time    0.03: real time    0.03
    --------------------------------------------
      LOOP:  cpu time    1.16: real time    1.16

 eigenvalue-minimisations  :    25
 total energy-change (2. order) : 0.6446552E+00  (-0.7693695E-02)
 number of electron       9.9999995 magnetization 
 augmentation part        0.7689444 magnetization 

 Broyden mixing:
  rms(total) = 0.13583E+01    rms(broyden)= 0.13583E+01
  rms(prec ) = 0.23153E+01
  weight for this iteration     100.00

 eigenvalues of (default mixing * dielectric matrix)
  average eigenvalue GAMMA=   1.6609
  3.9685  3.9685  2.3189  0.3227  0.3227  0.7337  0.8263  0.8263

 Free energy of the ion-electron system (eV)
  ---------------------------------------------------
  alpha Z        PSCENC =         0.40002888
  Ewald energy   TEWEN  =      -108.26781391
  -1/2 Hartree   DENC   =      -390.10863912
  -exchange  EXHF       =         0.00000000
  -V(xc)+E(xc)   XCENC  =        36.86984383
  PAW double counting   =       464.56873567     -466.97157183
  entropy T*S    EENTRO =        -0.00000000
  eigenvalues    EBANDS =      -119.70652109
  atomic energy  EATOM  =       579.39041991
  ---------------------------------------------------
  free energy    TOTEN  =        -3.82551767 eV

  energy without entropy =       -3.82551767  energy(sigma->0) =       -3.82551767


--------------------------------------------------------------------------------------------------------




----------------------------------------- Iteration    1(  14)  ---------------------------------------


    POTLOK:  cpu time    0.66: real time    0.66
    SETDIJ:  cpu time    0.00: real time    0.00
    EDDIAG:  cpu time    0.05: real time    0.05
  RMM-DIIS:  cpu time    0.25: real time    0.25
    ORTHCH:  cpu time    0.00: real time    0.00
       DOS:  cpu time    0.00: real time    0.00
    CHARGE:  cpu time    0.07: real time    0.07
    MIXING:  cpu time    0.03: real time    0.03
    --------------------------------------------
      LOOP:  cpu time    1.06: real time    1.07

 eigenvalue-minimisations  :    20
 total energy-change (2. order) : 0.1841581E+01  (-0.7839178E-01)
 number of electron       9.9999975 magnetization 
 augmentation part        0.0172477 magnetization 

 Broyden mixing:
  rms(total) = 0.24649E+01    rms(broyden)= 0.24623E+01
  rms(prec ) = 0.42177E+01
  weight for this iteration     100.00

 eigenvalues of (default mixing * dielectric matrix)
  average eigenvalue GAMMA=   1.4721
  3.9424  3.9424  2.2883  0.3227  0.3227  0.8515  0.8515  0.7053  0.0226

 Free energy of the ion-electron system (eV)
  ---------------------------------------------------
  alpha Z        PSCENC =         0.40002888
  Ewald energy   TEWEN  =      -108.26781391
  -1/2 Hartree   DENC   =      -392.06670293
  -exchange  EXHF       =         0.00000000
  -V(xc)+E(xc)   XCENC  =        36.78106374
  PAW double counting   =       457.26879595     -459.63587279
  entropy T*S    EENTRO =        -0.33530624
  eigenvalues    EBANDS =      -115.51854949
  atomic energy  EATOM  =       579.39041991
  ---------------------------------------------------
  free energy    TOTEN  =        -1.98393687 eV

  energy without entropy =       -1.64863063  energy(sigma->0) =       -1.81628375


--------------------------------------------------------------------------------------------------------




----------------------------------------- Iteration    1(  15)  ---------------------------------------


    POTLOK:  cpu time    0.69: real time    0.69
    SETDIJ:  cpu time    0.00: real time    0.00
    EDDIAG:  cpu time    0.06: real time    0.06
  RMM-DIIS:  cpu time    0.24: real time    0.24
    ORTHCH:  cpu time    0.00: real time    0.00
       DOS:  cpu time    0.00: real time    0.00
    CHARGE:  cpu time    0.06: real time    0.06
    MIXING:  cpu time    0.04: real time    0.04
    --------------------------------------------
      LOOP:  cpu time    1.10: real time    1.10

 eigenvalue-minimisations  :    19
 total energy-change (2. order) :-0.1569536E+01  (-0.6535158E-01)
 number of electron       9.9999995 magnetization 
 augmentation part        0.7863771 magnetization 

 Broyden mixing:
  rms(total) = 0.14447E+01    rms(broyden)= 0.14417E+01
  rms(prec ) = 0.23815E+01
  weight for this iteration     100.00

 eigenvalues of (default mixing * dielectric matrix)
  average eigenvalue GAMMA=   1.4431
  3.3288  3.3288  2.4643  1.5121  1.5121  0.7777  0.3226  0.3226  0.4311  0.4311

 Free energy of the ion-electron system (eV)
  ---------------------------------------------------
  alpha Z        PSCENC =         0.40002888
  Ewald energy   TEWEN  =      -108.26781391
  -1/2 Hartree   DENC   =      -384.69141044
  -exchange  EXHF       =         0.00000000
  -V(xc)+E(xc)   XCENC  =        36.43031993
  PAW double counting   =       449.35499822     -451.59175580
  entropy T*S    EENTRO =        -0.00000003
  eigenvalues    EBANDS =      -124.57826005
  atomic energy  EATOM  =       579.39041991
  ---------------------------------------------------
  free energy    TOTEN  =        -3.55347329 eV

  energy without entropy =       -3.55347326  energy(sigma->0) =       -3.55347328


--------------------------------------------------------------------------------------------------------




----------------------------------------- Iteration    1(  16)  ---------------------------------------


    POTLOK:  cpu time    0.70: real time    0.71
    SETDIJ:  cpu time    0.00: real time    0.00
    EDDIAG:  cpu time    0.05: real time    0.05
  RMM-DIIS:  cpu time    0.20: real time    0.21
    ORTHCH:  cpu time    0.00: real time    0.00
       DOS:  cpu time    0.00: real time    0.00
    CHARGE:  cpu time    0.06: real time    0.06
    MIXING:  cpu time    0.04: real time    0.04
    --------------------------------------------
      LOOP:  cpu time    1.06: real time    1.06

 eigenvalue-minimisations  :    19
 total energy-change (2. order) : 0.6372026E+00  (-0.2216233E-01)
 number of electron       9.9999995 magnetization 
 augmentation part        0.7697383 magnetization 

 Broyden mixing:
  rms(total) = 0.13577E+01    rms(broyden)= 0.13577E+01
  rms(prec ) = 0.22982E+01
  weight for this iteration     100.00

 eigenvalues of (default mixing * dielectric matrix)
  average eigenvalue GAMMA=   1.4216
  3.5691  3.5691  2.5022  1.5342  1.5342  0.3226  0.3226  0.6688  0.6688  0.4727
  0.4727

 Free energy of the ion-electron system (eV)
  ---------------------------------------------------
  alpha Z        PSCENC =         0.40002888
  Ewald energy   TEWEN  =      -108.26781391
  -1/2 Hartree   DENC   =      -389.77905795
  -exchange  EXHF       =         0.00000000
  -V(xc)+E(xc)   XCENC  =        36.77462756
  PAW double counting   =       468.04648840     -470.40661319
  entropy T*S    EENTRO =        -0.00000631
  eigenvalues    EBANDS =      -119.07434406
  atomic energy  EATOM  =       579.39041991
  ---------------------------------------------------
  free energy    TOTEN  =        -2.91627068 eV

  energy without entropy =       -2.91626437  energy(sigma->0) =       -2.91626752


--------------------------------------------------------------------------------------------------------




----------------------------------------- Iteration    1(  17)  ---------------------------------------


    POTLOK:  cpu time    0.69: real time    0.69
    SETDIJ:  cpu time    0.00: real time    0.00
    EDDIAG:  cpu time    0.06: real time    0.06
  RMM-DIIS:  cpu time    0.23: real time    0.23
    ORTHCH:  cpu time    0.00: real time    0.00
       DOS:  cpu time    0.00: real time    0.00
    CHARGE:  cpu time    0.07: real time    0.07
    MIXING:  cpu time    0.04: real time    0.04
    --------------------------------------------
      LOOP:  cpu time    1.09: real time    1.10

 eigenvalue-minimisations  :    19
 total energy-change (2. order) : 0.1729959E+01  (-0.1109510E-01)
 number of electron       9.9999996 magnetization 
 augmentation part        0.6797859 magnetization 

 Broyden mixing:
  rms(total) = 0.91874E+00    rms(broyden)= 0.91868E+00
  rms(prec ) = 0.15550E+01
  weight for this iteration     100.00

 eigenvalues of (default mixing * dielectric matrix)
  average eigenvalue GAMMA=   1.3078
  3.5595  3.5595  2.5632  1.5332  1.5332  0.3226  0.3226  0.6740  0.6740  0.4656
  0.4656  0.0203

 Free energy of the ion-electron system (eV)
  ---------------------------------------------------
  alpha Z        PSCENC =         0.40002888
  Ewald energy   TEWEN  =      -108.26781391
  -1/2 Hartree   DENC   =      -391.36192468
  -exchange  EXHF       =         0.00000000
  -V(xc)+E(xc)   XCENC  =        36.80288307
  PAW double counting   =       467.68999940     -470.05177373
  entropy T*S    EENTRO =        -0.26839447
  eigenvalues    EBANDS =      -115.51973647
  atomic energy  EATOM  =       579.39041991
  ---------------------------------------------------
  free energy    TOTEN  =        -1.18631200 eV

  energy without entropy =       -0.91791753  energy(sigma->0) =       -1.05211476


--------------------------------------------------------------------------------------------------------




----------------------------------------- Iteration    1(  18)  ---------------------------------------


    POTLOK:  cpu time    0.72: real time    0.72
    SETDIJ:  cpu time    0.00: real time    0.00
    EDDIAG:  cpu time    0.06: real time    0.06
  RMM-DIIS:  cpu time    0.29: real time    0.29
    ORTHCH:  cpu time    0.00: real time    0.00
       DOS:  cpu time    0.00: real time    0.00
    CHARGE:  cpu time    0.06: real time    0.06
    MIXING:  cpu time    0.04: real time    0.04
    --------------------------------------------
      LOOP:  cpu time    1.18: real time    1.17

 eigenvalue-minimisations  :    25
 total energy-change (2. order) : 0.9604409E-01  (-0.9908292E-03)
 number of electron       9.9999996 magnetization 
 augmentation part        0.6188733 magnetization 

 Broyden mixing:
  rms(total) = 0.61540E+00    rms(broyden)= 0.61532E+00
  rms(prec ) = 0.10386E+01
  weight for this iteration     100.00

 eigenvalues of (default mixing * dielectric matrix)
  average eigenvalue GAMMA=   1.2459
  3.4997  3.4997  2.5737  1.4780  1.4780  0.7646  0.7646  0.3226  0.3226  0.4658
  0.4658  0.2806  0.2806

 Free energy of the ion-electron system (eV)
  ---------------------------------------------------
  alpha Z        PSCENC =         0.40002888
  Ewald energy   TEWEN  =      -108.26781391
  -1/2 Hartree   DENC   =      -391.44438454
  -exchange  EXHF       =         0.00000000
  -V(xc)+E(xc)   XCENC  =        36.79516245
  PAW double counting   =       467.42779821     -469.78742245
  entropy T*S    EENTRO =        -0.40169005
  eigenvalues    EBANDS =      -115.20236640
  atomic energy  EATOM  =       579.39041991
  ---------------------------------------------------
  free energy    TOTEN  =        -1.09026791 eV

  energy without entropy =       -0.68857785  energy(sigma->0) =       -0.88942288


--------------------------------------------------------------------------------------------------------




----------------------------------------- Iteration    1(  19)  ---------------------------------------


    POTLOK:  cpu time    0.67: real time    0.67
    SETDIJ:  cpu time    0.00: real time    0.00
    EDDIAG:  cpu time    0.05: real time    0.05
  RMM-DIIS:  cpu time    0.24: real time    0.24
    ORTHCH:  cpu time    0.00: real time    0.00
       DOS:  cpu time    0.00: real time    0.00
    CHARGE:  cpu time    0.06: real time    0.07
    MIXING:  cpu time    0.05: real time    0.05
    --------------------------------------------
      LOOP:  cpu time    1.08: real time    1.08

 eigenvalue-minimisations  :    19
 total energy-change (2. order) :-0.2216886E+00  (-0.2403639E-03)
 number of electron       9.9999996 magnetization 
 augmentation part        0.7111892 magnetization 

 Broyden mixing:
  rms(total) = 0.10821E+01    rms(broyden)= 0.10820E+01
  rms(prec ) = 0.18368E+01
  weight for this iteration     100.00

 eigenvalues of (default mixing * dielectric matrix)
  average eigenvalue GAMMA=   1.2280
  3.5640  3.5640  2.7009  1.4656  1.4656  0.8239  0.8239  0.4112  0.4112  0.3226
  0.3226  0.4762  0.4762  0.3643

 Free energy of the ion-electron system (eV)
  ---------------------------------------------------
  alpha Z        PSCENC =         0.40002888
  Ewald energy   TEWEN  =      -108.26781391
  -1/2 Hartree   DENC   =      -391.20230151
  -exchange  EXHF       =         0.00000000
  -V(xc)+E(xc)   XCENC  =        36.79142939
  PAW double counting   =       467.78656922     -470.14612883
  entropy T*S    EENTRO =        -0.17371452
  eigenvalues    EBANDS =      -115.89044517
  atomic energy  EATOM  =       579.39041991
  ---------------------------------------------------
  free energy    TOTEN  =        -1.31195653 eV

  energy without entropy =       -1.13824201  energy(sigma->0) =       -1.22509927


--------------------------------------------------------------------------------------------------------




----------------------------------------- Iteration    1(  20)  ---------------------------------------


    POTLOK:  cpu time    0.71: real time    0.71
    SETDIJ:  cpu time    0.00: real time    0.00
    EDDIAG:  cpu time    0.06: real time    0.06
  RMM-DIIS:  cpu time    0.24: real time    0.23
    ORTHCH:  cpu time    0.00: real time    0.00
       DOS:  cpu time    0.00: real time    0.00
    CHARGE:  cpu time    0.07: real time    0.07
    MIXING:  cpu time    0.06: real time    0.06
    --------------------------------------------
      LOOP:  cpu time    1.14: real time    1.14

 eigenvalue-minimisations  :    19
 total energy-change (2. order) : 0.2598176E+00  (-0.2156295E-03)
 number of electron       9.9999995 magnetization 
 augmentation part        0.5755309 magnetization 

 Broyden mixing:
  rms(total) = 0.39481E+00    rms(broyden)= 0.39448E+00
  rms(prec ) = 0.65809E+00
  weight for this iteration     100.00

 eigenvalues of (default mixing * dielectric matrix)
  average eigenvalue GAMMA=   1.2445
  3.6072  3.6072  2.7547  1.5119  1.5119  0.9977  0.9977  0.6894  0.6894  0.3226
  0.3226  0.4711  0.4711  0.3566  0.3566

 Free energy of the ion-electron system (eV)
  ---------------------------------------------------
  alpha Z        PSCENC =         0.40002888
  Ewald energy   TEWEN  =      -108.26781391
  -1/2 Hartree   DENC   =      -391.35344191
  -exchange  EXHF       =         0.00000000
  -V(xc)+E(xc)   XCENC  =        36.78103415
  PAW double counting   =       466.67109237     -469.02662497
  entropy T*S    EENTRO =        -0.48037533
  eigenvalues    EBANDS =      -115.16645809
  atomic energy  EATOM  =       579.39041991
  ---------------------------------------------------
  free energy    TOTEN  =        -1.05213889 eV

  energy without entropy =       -0.57176356  energy(sigma->0) =       -0.81195123


--------------------------------------------------------------------------------------------------------




----------------------------------------- Iteration    1(  21)  ---------------------------------------


    POTLOK:  cpu time    0.69: real time    0.69
    SETDIJ:  cpu time    0.00: real time    0.00
    EDDIAG:  cpu time    0.05: real time    0.05
  RMM-DIIS:  cpu time    0.17: real time    0.17
    ORTHCH:  cpu time    0.00: real time    0.00
       DOS:  cpu time    0.00: real time    0.00
    CHARGE:  cpu time    0.06: real time    0.06
    MIXING:  cpu time    0.05: real time    0.05
    --------------------------------------------
      LOOP:  cpu time    1.03: real time    1.03

 eigenvalue-minimisations  :    15
 total energy-change (2. order) :-0.7053604E-01  (-0.3343408E-04)
 number of electron       9.9999996 magnetization 
 augmentation part        0.6365529 magnetization 

 Broyden mixing:
  rms(total) = 0.70394E+00    rms(broyden)= 0.70392E+00
  rms(prec ) = 0.11877E+01
  weight for this iteration     100.00

 eigenvalues of (default mixing * dielectric matrix)
  average eigenvalue GAMMA=   1.2648
  3.6555  3.6555  2.6382  2.0439  2.0439  0.9575  0.9575  0.7726  0.7726  0.3226
  0.3226  0.4777  0.4777  0.4418  0.3485  0.3485

 Free energy of the ion-electron system (eV)
  ---------------------------------------------------
  alpha Z        PSCENC =         0.40002888
  Ewald energy   TEWEN  =      -108.26781391
  -1/2 Hartree   DENC   =      -391.19054735
  -exchange  EXHF       =         0.00000000
  -V(xc)+E(xc)   XCENC  =        36.77051037
  PAW double counting   =       467.09214935     -469.44524925
  entropy T*S    EENTRO =        -0.36735128
  eigenvalues    EBANDS =      -115.50482166
  atomic energy  EATOM  =       579.39041991
  ---------------------------------------------------
  free energy    TOTEN  =        -1.12267493 eV

  energy without entropy =       -0.75532366  energy(sigma->0) =       -0.93899930


--------------------------------------------------------------------------------------------------------




----------------------------------------- Iteration    1(  22)  ---------------------------------------


    POTLOK:  cpu time    0.69: real time    0.69
    SETDIJ:  cpu time    0.00: real time    0.00
    EDDIAG:  cpu time    0.06: real time    0.06
  RMM-DIIS:  cpu time    0.19: real time    0.19
    ORTHCH:  cpu time    0.00: real time    0.00
       DOS:  cpu time    0.00: real time    0.00
    CHARGE:  cpu time    0.07: real time    0.07
    MIXING:  cpu time    0.06: real time    0.06
    --------------------------------------------
      LOOP:  cpu time    1.07: real time    1.07

 eigenvalue-minimisations  :    15
 total energy-change (2. order) : 0.5673806E-01  (-0.7450351E-04)
 number of electron       9.9999995 magnetization 
 augmentation part        0.5847970 magnetization 

 Broyden mixing:
  rms(total) = 0.44050E+00    rms(broyden)= 0.44045E+00
  rms(prec ) = 0.73973E+00
  weight for this iteration     100.00

 eigenvalues of (default mixing * dielectric matrix)
  average eigenvalue GAMMA=   1.3013
  3.7036  3.7036  2.2676  2.2676  1.9213  1.5071  1.0472  1.0472  0.9158  0.9158
  0.3226  0.3226  0.5211  0.4777  0.4777  0.3519  0.3519

 Free energy of the ion-electron system (eV)
  ---------------------------------------------------
  alpha Z        PSCENC =         0.40002888
  Ewald energy   TEWEN  =      -108.26781391
  -1/2 Hartree   DENC   =      -391.44238993
  -exchange  EXHF       =         0.00000000
  -V(xc)+E(xc)   XCENC  =        36.78482138
  PAW double counting   =       467.71584403     -470.07232989
  entropy T*S    EENTRO =        -0.46466163
  eigenvalues    EBANDS =      -115.10985571
  atomic energy  EATOM  =       579.39041991
  ---------------------------------------------------
  free energy    TOTEN  =        -1.06593688 eV

  energy without entropy =       -0.60127524  energy(sigma->0) =       -0.83360606


--------------------------------------------------------------------------------------------------------




----------------------------------------- Iteration    1(  23)  ---------------------------------------


    POTLOK:  cpu time    0.72: real time    0.72
    SETDIJ:  cpu time    0.00: real time    0.00
    EDDIAG:  cpu time    0.06: real time    0.06
  RMM-DIIS:  cpu time    0.20: real time    0.20
    ORTHCH:  cpu time    0.00: real time    0.00
       DOS:  cpu time    0.00: real time    0.00
    CHARGE:  cpu time    0.06: real time    0.06
    MIXING:  cpu time    0.05: real time    0.05
    --------------------------------------------
      LOOP:  cpu time    1.10: real time    1.10

 eigenvalue-minimisations  :    15
 total energy-change (2. order) :-0.9661154E-01  (-0.1073208E-03)
 number of electron       9.9999996 magnetization 
 augmentation part        0.6597739 magnetization 

 Broyden mixing:
  rms(total) = 0.82057E+00    rms(broyden)= 0.82052E+00
  rms(prec ) = 0.13882E+01
  weight for this iteration     100.00

 eigenvalues of (default mixing * dielectric matrix)
  average eigenvalue GAMMA=   1.2406
  3.7003  3.7003  2.2458  2.2458  2.1733  1.1797  1.1286  1.1286  0.8055  0.8055
  0.3226  0.3226  0.3525  0.3525  0.4796  0.4796  0.4535  0.4535

 Free energy of the ion-electron system (eV)
  ---------------------------------------------------
  alpha Z        PSCENC =         0.40002888
  Ewald energy   TEWEN  =      -108.26781391
  -1/2 Hartree   DENC   =      -391.13126459
  -exchange  EXHF       =         0.00000000
  -V(xc)+E(xc)   XCENC  =        36.76926757
  PAW double counting   =       467.90613043     -470.25620818
  entropy T*S    EENTRO =        -0.31533757
  eigenvalues    EBANDS =      -115.65777096
  atomic energy  EATOM  =       579.39041991
  ---------------------------------------------------
  free energy    TOTEN  =        -1.16254842 eV

  energy without entropy =       -0.84721085  energy(sigma->0) =       -1.00487963


--------------------------------------------------------------------------------------------------------




----------------------------------------- Iteration    1(  24)  ---------------------------------------


    POTLOK:  cpu time    0.67: real time    0.67
    SETDIJ:  cpu time    0.00: real time    0.00
    EDDIAG:  cpu time    0.05: real time    0.05
  RMM-DIIS:  cpu time    0.23: real time    0.23
    ORTHCH:  cpu time    0.00: real time    0.00
       DOS:  cpu time    0.00: real time    0.00
    CHARGE:  cpu time    0.07: real time    0.07
    MIXING:  cpu time    0.06: real time    0.06
    --------------------------------------------
      LOOP:  cpu time    1.09: real time    1.09

 eigenvalue-minimisations  :    19
 total energy-change (2. order) : 0.1194361E+00  (-0.2053389E-03)
 number of electron       9.9999994 magnetization 
 augmentation part        0.5388971 magnetization 

 Broyden mixing:
  rms(total) = 0.20601E+00    rms(broyden)= 0.20548E+00
  rms(prec ) = 0.33893E+00
  weight for this iteration     100.00

 eigenvalues of (default mixing * dielectric matrix)
  average eigenvalue GAMMA=   1.2034
  3.6951  3.6951  2.2716  2.2060  2.2060  1.2669  1.0844  1.0844  0.8060  0.8060
  0.3226  0.3226  0.5482  0.5482  0.4794  0.4794  0.3520  0.3520  0.3377

 Free energy of the ion-electron system (eV)
  ---------------------------------------------------
  alpha Z        PSCENC =         0.40002888
  Ewald energy   TEWEN  =      -108.26781391
  -1/2 Hartree   DENC   =      -391.45003138
  -exchange  EXHF       =         0.00000000
  -V(xc)+E(xc)   XCENC  =        36.78075517
  PAW double counting   =       468.47057955     -470.82132241
  entropy T*S    EENTRO =        -0.53353496
  eigenvalues    EBANDS =      -115.01219314
  atomic energy  EATOM  =       579.39041991
  ---------------------------------------------------
  free energy    TOTEN  =        -1.04311230 eV

  energy without entropy =       -0.50957734  energy(sigma->0) =       -0.77634482


--------------------------------------------------------------------------------------------------------




----------------------------------------- Iteration    1(  25)  ---------------------------------------


    POTLOK:  cpu time    0.72: real time    0.72
    SETDIJ:  cpu time    0.00: real time    0.00
    EDDIAG:  cpu time    0.06: real time    0.06
  RMM-DIIS:  cpu time    0.22: real time    0.23
    ORTHCH:  cpu time    0.00: real time    0.00
       DOS:  cpu time    0.00: real time    0.00
    CHARGE:  cpu time    0.06: real time    0.07
    MIXING:  cpu time    0.07: real time    0.07
    --------------------------------------------
      LOOP:  cpu time    1.14: real time    1.14

 eigenvalue-minimisations  :    18
 total energy-change (2. order) :-0.8492922E-01  (-0.6583708E-04)
 number of electron       9.9999995 magnetization 
 augmentation part        0.6369372 magnetization 

 Broyden mixing:
  rms(total) = 0.70370E+00    rms(broyden)= 0.70363E+00
  rms(prec ) = 0.11917E+01
  weight for this iteration     100.00

 eigenvalues of (default mixing * dielectric matrix)
  average eigenvalue GAMMA=   1.2520
  3.6969  3.6969  2.1894  2.1894  2.1459  2.1459  1.3136  1.3136  0.7655  0.7655
  0.7493  0.3226  0.3226  0.6037  0.6037  0.5559  0.4785  0.4785  0.3516  0.3516

 Free energy of the ion-electron system (eV)
  ---------------------------------------------------
  alpha Z        PSCENC =         0.40002888
  Ewald energy   TEWEN  =      -108.26781391
  -1/2 Hartree   DENC   =      -391.32331401
  -exchange  EXHF       =         0.00000000
  -V(xc)+E(xc)   XCENC  =        36.77820597
  PAW double counting   =       469.65491139     -472.00239803
  entropy T*S    EENTRO =        -0.36588422
  eigenvalues    EBANDS =      -115.39219750
  atomic energy  EATOM  =       579.39041991
  ---------------------------------------------------
  free energy    TOTEN  =        -1.12804152 eV

  energy without entropy =       -0.76215730  energy(sigma->0) =       -0.94509941


--------------------------------------------------------------------------------------------------------




----------------------------------------- Iteration    1(  26)  ---------------------------------------


    POTLOK:  cpu time    0.70: real time    0.70
    SETDIJ:  cpu time    0.00: real time    0.00
    EDDIAG:  cpu time    0.05: real time    0.05
  RMM-DIIS:  cpu time    0.21: real time    0.21
    ORTHCH:  cpu time    0.00: real time    0.00
       DOS:  cpu time    0.00: real time    0.00
    CHARGE:  cpu time    0.06: real time    0.06
    MIXING:  cpu time    0.06: real time    0.06
    --------------------------------------------
      LOOP:  cpu time    1.09: real time    1.09

 eigenvalue-minimisations  :    19
 total energy-change (2. order) : 0.8576635E-01  (-0.1851548E-03)
 number of electron       9.9999994 magnetization 
 augmentation part        0.5085011 magnetization 

 Broyden mixing:
  rms(total) = 0.52459E-01    rms(broyden)= 0.50102E-01
  rms(prec ) = 0.76001E-01
  weight for this iteration     100.00

 eigenvalues of (default mixing * dielectric matrix)
  average eigenvalue GAMMA=   1.3118
  3.6807  3.6807  3.6335  2.7999  2.0161  2.0161  1.3337  1.3337  0.8089  0.8089
  0.7642  0.7404  0.7404  0.3517  0.3517  0.3226  0.3226  0.4787  0.4787  0.4948
  0.3890

 Free energy of the ion-electron system (eV)
  ---------------------------------------------------
  alpha Z        PSCENC =         0.40002888
  Ewald energy   TEWEN  =      -108.26781391
  -1/2 Hartree   DENC   =      -391.58853157
  -exchange  EXHF       =         0.00000000
  -V(xc)+E(xc)   XCENC  =        36.78619528
  PAW double counting   =       470.01427834     -472.36155149
  entropy T*S    EENTRO =        -0.57017564
  eigenvalues    EBANDS =      -114.84512497
  atomic energy  EATOM  =       579.39041991
  ---------------------------------------------------
  free energy    TOTEN  =        -1.04227517 eV

  energy without entropy =       -0.47209953  energy(sigma->0) =       -0.75718735


--------------------------------------------------------------------------------------------------------




----------------------------------------- Iteration    1(  27)  ---------------------------------------


    POTLOK:  cpu time    0.70: real time    0.71
    SETDIJ:  cpu time    0.00: real time    0.00
    EDDIAG:  cpu time    0.05: real time    0.05
  RMM-DIIS:  cpu time    0.22: real time    0.22
    ORTHCH:  cpu time    0.00: real time    0.00
       DOS:  cpu time    0.00: real time    0.00
    CHARGE:  cpu time    0.07: real time    0.07
    MIXING:  cpu time    0.08: real time    0.08
    --------------------------------------------
      LOOP:  cpu time    1.13: real time    1.13

 eigenvalue-minimisations  :    18
 total energy-change (2. order) :-0.7086037E-01  (-0.9043772E-04)
 number of electron       9.9999995 magnetization 
 augmentation part        0.6225475 magnetization 

 Broyden mixing:
  rms(total) = 0.63000E+00    rms(broyden)= 0.62988E+00
  rms(prec ) = 0.10688E+01
  weight for this iteration     100.00

 eigenvalues of (default mixing * dielectric matrix)
  average eigenvalue GAMMA=   1.3461
  4.4042  3.6829  3.6829  2.6778  2.2212  2.2212  1.4124  1.4124  0.8969  0.8969
  0.7660  0.7660  0.3517  0.3517  0.3226  0.3226  0.7501  0.4781  0.4781  0.5669
  0.5669  0.3850

 Free energy of the ion-electron system (eV)
  ---------------------------------------------------
  alpha Z        PSCENC =         0.40002888
  Ewald energy   TEWEN  =      -108.26781391
  -1/2 Hartree   DENC   =      -391.51016956
  -exchange  EXHF       =         0.00000000
  -V(xc)+E(xc)   XCENC  =        36.78936515
  PAW double counting   =       471.19626297     -473.54264856
  entropy T*S    EENTRO =        -0.39456429
  eigenvalues    EBANDS =      -115.17401613
  atomic energy  EATOM  =       579.39041991
  ---------------------------------------------------
  free energy    TOTEN  =        -1.11313554 eV

  energy without entropy =       -0.71857125  energy(sigma->0) =       -0.91585339


--------------------------------------------------------------------------------------------------------




----------------------------------------- Iteration    1(  28)  ---------------------------------------


    POTLOK:  cpu time    0.73: real time    0.73
    SETDIJ:  cpu time    0.00: real time    0.00
    EDDIAG:  cpu time    0.06: real time    0.06
  RMM-DIIS:  cpu time    0.23: real time    0.23
    ORTHCH:  cpu time    0.00: real time    0.00
       DOS:  cpu time    0.00: real time    0.00
    CHARGE:  cpu time    0.06: real time    0.06
    MIXING:  cpu time    0.07: real time    0.07
    --------------------------------------------
      LOOP:  cpu time    1.16: real time    1.16

 eigenvalue-minimisations  :    19
 total energy-change (2. order) : 0.6856315E-01  (-0.1689244E-03)
 number of electron       9.9999993 magnetization 
 augmentation part        0.4951243 magnetization 

 Broyden mixing:
  rms(total) = 0.27367E-01    rms(broyden)= 0.22847E-01
  rms(prec ) = 0.43812E-01
  weight for this iteration     100.00
  WARNING: grid for Broyden might be to small

 eigenvalues of (default mixing * dielectric matrix)
  average eigenvalue GAMMA=   1.3490
  4.5794  3.6866  3.6866  2.3545  2.3545  2.4401  1.4481  1.4481  0.9651  0.9651
  0.8104  0.8104  0.3517  0.3517  0.3226  0.3226  0.7765  0.6999  0.6999  0.4783
  0.4783  0.5968  0.4002

 Free energy of the ion-electron system (eV)
  ---------------------------------------------------
  alpha Z        PSCENC =         0.40002888
  Ewald energy   TEWEN  =      -108.26781391
  -1/2 Hartree   DENC   =      -391.75958285
  -exchange  EXHF       =         0.00000000
  -V(xc)+E(xc)   XCENC  =        36.79697934
  PAW double counting   =       471.35408425     -473.70098497
  entropy T*S    EENTRO =        -0.58394491
  eigenvalues    EBANDS =      -114.67375814
  atomic energy  EATOM  =       579.39041991
  ---------------------------------------------------
  free energy    TOTEN  =        -1.04457239 eV

  energy without entropy =       -0.46062748  energy(sigma->0) =       -0.75259994


--------------------------------------------------------------------------------------------------------




----------------------------------------- Iteration    1(  29)  ---------------------------------------


    POTLOK:  cpu time    0.69: real time    0.69
    SETDIJ:  cpu time    0.00: real time    0.00
    EDDIAG:  cpu time    0.05: real time    0.05
  RMM-DIIS:  cpu time    0.21: real time    0.21
    ORTHCH:  cpu time    0.00: real time    0.00
       DOS:  cpu time    0.00: real time    0.00
    CHARGE:  cpu time    0.07: real time    0.07
    MIXING:  cpu time    0.08: real time    0.08
    --------------------------------------------
      LOOP:  cpu time    1.10: real time    1.11

 eigenvalue-minimisations  :    16
 total energy-change (2. order) :-0.3230530E-01  (-0.4455469E-04)
 number of electron       9.9999994 magnetization 
 augmentation part        0.5813092 magnetization 

 Broyden mixing:
  rms(total) = 0.41971E+00    rms(broyden)= 0.41962E+00
  rms(prec ) = 0.71219E+00
  weight for this iteration     100.00

 eigenvalues of (default mixing * dielectric matrix)
  average eigenvalue GAMMA=   1.3140
  4.7964  3.6864  3.6864  2.3224  2.3224  2.4406  1.4066  1.4066  1.0502  1.0502
  0.8174  0.8174  0.3517  0.3517  0.3226  0.3226  0.7611  0.7026  0.7026  0.4783
  0.4783  0.5905  0.2680  0.4026

 Free energy of the ion-electron system (eV)
  ---------------------------------------------------
  alpha Z        PSCENC =         0.40002888
  Ewald energy   TEWEN  =      -108.26781391
  -1/2 Hartree   DENC   =      -391.71337819
  -exchange  EXHF       =         0.00000000
  -V(xc)+E(xc)   XCENC  =        36.79932667
  PAW double counting   =       472.15548713     -474.50208193
  entropy T*S    EENTRO =        -0.46878669
  eigenvalues    EBANDS =      -114.87007957
  atomic energy  EATOM  =       579.39041991
  ---------------------------------------------------
  free energy    TOTEN  =        -1.07687769 eV

  energy without entropy =       -0.60809100  energy(sigma->0) =       -0.84248435


--------------------------------------------------------------------------------------------------------




----------------------------------------- Iteration    1(  30)  ---------------------------------------


    POTLOK:  cpu time    0.73: real time    0.73
    SETDIJ:  cpu time    0.00: real time    0.00
    EDDIAG:  cpu time    0.06: real time    0.06
  RMM-DIIS:  cpu time    0.24: real time    0.24
    ORTHCH:  cpu time    0.00: real time    0.00
       DOS:  cpu time    0.00: real time    0.00
    CHARGE:  cpu time    0.07: real time    0.07
    MIXING:  cpu time    0.10: real time    0.10
    --------------------------------------------
      LOOP:  cpu time    1.20: real time    1.20

 eigenvalue-minimisations  :    19
 total energy-change (2. order) : 0.2885772E-01  (-0.5845422E-04)
 number of electron       9.9999993 magnetization 
 augmentation part        0.5032457 magnetization 

 Broyden mixing:
  rms(total) = 0.22548E-01    rms(broyden)= 0.20652E-01
  rms(prec ) = 0.31581E-01
  weight for this iteration     100.00

 eigenvalues of (default mixing * dielectric matrix)
  average eigenvalue GAMMA=   1.4050
  5.6779  3.6924  3.6924  2.5169  2.5169  2.5131  1.8750  1.8750  1.1739  1.1739
  0.8433  0.8433  0.3517  0.3517  0.7907  0.7907  0.3226  0.3226  0.7535  0.4783
  0.4783  0.6162  0.5381  0.5381  0.3979

 Free energy of the ion-electron system (eV)
  ---------------------------------------------------
  alpha Z        PSCENC =         0.40002888
  Ewald energy   TEWEN  =      -108.26781391
  -1/2 Hartree   DENC   =      -391.88443598
  -exchange  EXHF       =         0.00000000
  -V(xc)+E(xc)   XCENC  =        36.80545549
  PAW double counting   =       472.31798670     -474.66547236
  entropy T*S    EENTRO =        -0.57493357
  eigenvalues    EBANDS =      -114.56925513
  atomic energy  EATOM  =       579.39041991
  ---------------------------------------------------
  free energy    TOTEN  =        -1.04801998 eV

  energy without entropy =       -0.47308640  energy(sigma->0) =       -0.76055319


--------------------------------------------------------------------------------------------------------




----------------------------------------- Iteration    1(  31)  ---------------------------------------


    POTLOK:  cpu time    0.72: real time    0.72
    SETDIJ:  cpu time    0.00: real time    0.00
    EDDIAG:  cpu time    0.05: real time    0.05
  RMM-DIIS:  cpu time    0.14: real time    0.14
    ORTHCH:  cpu time    0.00: real time    0.00
       DOS:  cpu time    0.00: real time    0.00
    CHARGE:  cpu time    0.06: real time    0.06
    MIXING:  cpu time    0.08: real time    0.08
    --------------------------------------------
      LOOP:  cpu time    1.06: real time    1.06

 eigenvalue-minimisations  :    12
 total energy-change (2. order) :-0.1033503E-01  (-0.1123792E-04)
[...]
  -V(xc)+E(xc)   XCENC  =        36.81307480
  PAW double counting   =       472.95248546     -475.30129525
  entropy T*S    EENTRO =        -0.56427826
  eigenvalues    EBANDS =      -114.48733470
  atomic energy  EATOM  =       579.39041991
  ---------------------------------------------------
  free energy    TOTEN  =        -1.05111471 eV

  energy without entropy =       -0.48683645  energy(sigma->0) =       -0.76897558


--------------------------------------------------------------------------------------------------------




----------------------------------------- Iteration    1(  33)  ---------------------------------------


    POTLOK:  cpu time    0.76: real time    0.76
    SETDIJ:  cpu time    0.00: real time    0.00
    EDDIAG:  cpu time    0.06: real time    0.06
  RMM-DIIS:  cpu time    0.15: real time    0.15
    ORTHCH:  cpu time    0.00: real time    0.00
       DOS:  cpu time    0.00: real time    0.00
    CHARGE:  cpu time    0.06: real time    0.06
    MIXING:  cpu time    0.09: real time    0.09
    --------------------------------------------
      LOOP:  cpu time    1.12: real time    1.12

 eigenvalue-minimisations  :    11
 total energy-change (2. order) :-0.1894720E-02  (-0.7438228E-05)
 number of electron       9.9999993 magnetization 
 augmentation part        0.5190501 magnetization 

 Broyden mixing:
  rms(total) = 0.10085E+00    rms(broyden)= 0.10085E+00
  rms(prec ) = 0.17069E+00
  weight for this iteration     100.00

 eigenvalues of (default mixing * dielectric matrix)
  average eigenvalue GAMMA=   1.3388
  5.9095  3.6936  3.6936  2.4472  2.4472  2.2960  2.1975  1.4440  1.4440  0.9600
  0.9600  0.9819  0.9819  0.8687  0.8687  0.8270  0.3517  0.3517  0.3226  0.3226
  0.6185  0.6185  0.4783  0.4783  0.5364  0.5364  0.4460  0.4034

 Free energy of the ion-electron system (eV)
  ---------------------------------------------------
  alpha Z        PSCENC =         0.40002888
  Ewald energy   TEWEN  =      -108.26781391
  -1/2 Hartree   DENC   =      -392.02664346
  -exchange  EXHF       =         0.00000000
  -V(xc)+E(xc)   XCENC  =        36.81643452
  PAW double counting   =       473.19018697     -475.53965473
  entropy T*S    EENTRO =        -0.55635831
  eigenvalues    EBANDS =      -114.45960930
  atomic energy  EATOM  =       579.39041991
  ---------------------------------------------------
  free energy    TOTEN  =        -1.05300943 eV

  energy without entropy =       -0.49665112  energy(sigma->0) =       -0.77483028


--------------------------------------------------------------------------------------------------------




----------------------------------------- Iteration    1(  34)  ---------------------------------------


    POTLOK:  cpu time    0.71: real time    0.71
    SETDIJ:  cpu time    0.00: real time    0.00
    EDDIAG:  cpu time    0.05: real time    0.05
  RMM-DIIS:  cpu time    0.15: real time    0.15
    ORTHCH:  cpu time    0.00: real time    0.00
       DOS:  cpu time    0.00: real time    0.00
    CHARGE:  cpu time    0.07: real time    0.07
    MIXING:  cpu time    0.10: real time    0.10
    --------------------------------------------
      LOOP:  cpu time    1.08: real time    1.08

 eigenvalue-minimisations  :    10
 total energy-change (2. order) : 0.3643802E-03  (-0.3751057E-05)
 number of electron       9.9999993 magnetization 
 augmentation part        0.5163087 magnetization 

 Broyden mixing:
  rms(total) = 0.86954E-01    rms(broyden)= 0.86953E-01
  rms(prec ) = 0.14737E+00
  weight for this iteration     100.00

 eigenvalues of (default mixing * dielectric matrix)
  average eigenvalue GAMMA=   1.3057
  5.9268  3.6937  3.6937  2.4051  2.4051  2.2215  2.2215  1.4987  1.4987  0.9459
  0.9459  1.0174  1.0174  0.3517  0.3517  0.8071  0.8071  0.3226  0.3226  0.7560
  0.6832  0.6832  0.4783  0.4783  0.5287  0.5287  0.4023  0.4362  0.4362

 Free energy of the ion-electron system (eV)
  ---------------------------------------------------
  alpha Z        PSCENC =         0.40002888
  Ewald energy   TEWEN  =      -108.26781391
  -1/2 Hartree   DENC   =      -392.05616824
  -exchange  EXHF       =         0.00000000
  -V(xc)+E(xc)   XCENC  =        36.81839770
  PAW double counting   =       473.27962188     -475.62950912
  entropy T*S    EENTRO =        -0.55945781
  eigenvalues    EBANDS =      -114.42816434
  atomic energy  EATOM  =       579.39041991
  ---------------------------------------------------
  free energy    TOTEN  =        -1.05264505 eV

  energy without entropy =       -0.49318724  energy(sigma->0) =       -0.77291614


--------------------------------------------------------------------------------------------------------




----------------------------------------- Iteration    1(  35)  ---------------------------------------


    POTLOK:  cpu time    0.76: real time    0.76
    SETDIJ:  cpu time    0.00: real time    0.00
    EDDIAG:  cpu time    0.06: real time    0.06
  RMM-DIIS:  cpu time    0.15: real time    0.15
    ORTHCH:  cpu time    0.00: real time    0.00
       DOS:  cpu time    0.00: real time    0.00
    CHARGE:  cpu time    0.07: real time    0.07
    MIXING:  cpu time    0.12: real time    0.12
    --------------------------------------------
      LOOP:  cpu time    1.17: real time    1.17

 eigenvalue-minimisations  :    11
 total energy-change (2. order) : 0.7779835E-03  (-0.8831000E-05)
 number of electron       9.9999993 magnetization 
 augmentation part        0.4995002 magnetization 

 Broyden mixing:
  rms(total) = 0.32594E-02    rms(broyden)= 0.22076E-02
  rms(prec ) = 0.27418E-02
  weight for this iteration     100.00
  WARNING: grid for Broyden might be to small

 eigenvalues of (default mixing * dielectric matrix)
  average eigenvalue GAMMA=   1.3136
  5.4735  3.6939  3.6939  2.4402  2.4402  2.7096  2.3869  1.4858  1.4858  1.0843
  1.0843  0.8715  0.8715  0.8895  0.8895  0.3517  0.3517  0.8672  0.3226  0.3226
  0.6972  0.6972  0.4783  0.4783  0.6588  0.6588  0.5764  0.5764  0.4677  0.4033

 Free energy of the ion-electron system (eV)
  ---------------------------------------------------
  alpha Z        PSCENC =         0.40002888
  Ewald energy   TEWEN  =      -108.26781391
  -1/2 Hartree   DENC   =      -392.13676309
  -exchange  EXHF       =         0.00000000
  -V(xc)+E(xc)   XCENC  =        36.82257577
  PAW double counting   =       473.45234071     -475.80294456
  entropy T*S    EENTRO =        -0.57817122
  eigenvalues    EBANDS =      -114.33153955
  atomic energy  EATOM  =       579.39041991
  ---------------------------------------------------
  free energy    TOTEN  =        -1.05186707 eV

  energy without entropy =       -0.47369585  energy(sigma->0) =       -0.76278146


--------------------------------------------------------------------------------------------------------




----------------------------------------- Iteration    1(  36)  ---------------------------------------


    POTLOK:  cpu time    0.76: real time    0.77
    SETDIJ:  cpu time    0.00: real time    0.00
    EDDIAG:  cpu time    0.05: real time    0.05
  RMM-DIIS:  cpu time    0.13: real time    0.13
    ORTHCH:  cpu time    0.00: real time    0.00
       DOS:  cpu time    0.00: real time    0.00
    CHARGE:  cpu time    0.06: real time    0.06
    MIXING:  cpu time    0.10: real time    0.10
    --------------------------------------------
      LOOP:  cpu time    1.11: real time    1.11

 eigenvalue-minimisations  :    10
 total energy-change (2. order) :-0.5969000E-03  (-0.6159376E-05)
 number of electron       9.9999993 magnetization 
 augmentation part        0.5059270 magnetization 

 Broyden mixing:
  rms(total) = 0.34024E-01    rms(broyden)= 0.34021E-01
  rms(prec ) = 0.58096E-01
  weight for this iteration     100.00

 eigenvalues of (default mixing * dielectric matrix)
  average eigenvalue GAMMA=   1.2928
  5.6362  3.6939  3.6939  2.4181  2.4181  2.6638  2.3320  1.5412  1.5412  1.1682
  1.1682  0.9538  0.9538  0.8658  0.8658  0.3517  0.3517  0.8350  0.3226  0.3226
  0.6918  0.6918  0.7139  0.7139  0.4783  0.4783  0.5169  0.5169  0.2920  0.4831
  0.4031

 Free energy of the ion-electron system (eV)
  ---------------------------------------------------
  alpha Z        PSCENC =         0.40002888
  Ewald energy   TEWEN  =      -108.26781391
  -1/2 Hartree   DENC   =      -392.17673994
  -exchange  EXHF       =         0.00000000
  -V(xc)+E(xc)   XCENC  =        36.82609940
  PAW double counting   =       473.62218760     -475.97349910
  entropy T*S    EENTRO =        -0.57095467
  eigenvalues    EBANDS =      -114.30219214
  atomic energy  EATOM  =       579.39041991
  ---------------------------------------------------
  free energy    TOTEN  =        -1.05246397 eV

  energy without entropy =       -0.48150930  energy(sigma->0) =       -0.76698663


--------------------------------------------------------------------------------------------------------




----------------------------------------- Iteration    1(  37)  ---------------------------------------


    POTLOK:  cpu time    0.77: real time    0.77
    SETDIJ:  cpu time    0.00: real time    0.00
    EDDIAG:  cpu time    0.06: real time    0.05
  RMM-DIIS:  cpu time    0.14: real time    0.14
    ORTHCH:  cpu time    0.00: real time    0.00
       DOS:  cpu time    0.00: real time    0.00
    CHARGE:  cpu time    0.07: real time    0.07
    MIXING:  cpu time    0.12: real time    0.13
    --------------------------------------------
      LOOP:  cpu time    1.16: real time    1.17

 eigenvalue-minimisations  :     9
 total energy-change (2. order) : 0.1505986E-03  (-0.3167908E-05)
 number of electron       9.9999993 magnetization 
 augmentation part        0.4989121 magnetization 

 Broyden mixing:
  rms(total) = 0.22930E-02    rms(broyden)= 0.21203E-02
  rms(prec ) = 0.31371E-02
  weight for this iteration     100.00

 eigenvalues of (default mixing * dielectric matrix)
  average eigenvalue GAMMA=   1.3337
  4.5389  4.5389  3.6937  3.6937  2.3750  2.3750  2.4004  1.7010  1.7010  1.4234
  1.4234  1.0315  1.0315  0.8387  0.8387  0.3517  0.3517  0.7058  0.7058  0.8056
  0.7510  0.7510  0.3226  0.3226  0.4783  0.4783  0.5729  0.5729  0.5829  0.4583
  0.4583  0.4023

 Free energy of the ion-electron system (eV)
  ---------------------------------------------------
  alpha Z        PSCENC =         0.40002888
  Ewald energy   TEWEN  =      -108.26781391
  -1/2 Hartree   DENC   =      -392.20695702
  -exchange  EXHF       =         0.00000000
  -V(xc)+E(xc)   XCENC  =        36.82748343
  PAW double counting   =       473.63520630     -475.98676616
  entropy T*S    EENTRO =        -0.57848959
  eigenvalues    EBANDS =      -114.26542521
  atomic energy  EATOM  =       579.39041991
  ---------------------------------------------------
  free energy    TOTEN  =        -1.05231337 eV

  energy without entropy =       -0.47382378  energy(sigma->0) =       -0.76306857


--------------------------------------------------------------------------------------------------------




----------------------------------------- Iteration    1(  38)  ---------------------------------------


    POTLOK:  cpu time    0.82: real time    0.82
    SETDIJ:  cpu time    0.00: real time    0.00
    EDDIAG:  cpu time    0.06: real time    0.06
  RMM-DIIS:  cpu time    0.14: real time    0.13
    ORTHCH:  cpu time    0.00: real time    0.00
       DOS:  cpu time    0.00: real time    0.00
    --------------------------------------------
      LOOP:  cpu time    1.02: real time    1.02

 eigenvalue-minimisations  :    10
 total energy-change (2. order) :-0.8560491E-04  (-0.1515110E-05)
 number of electron       9.9999993 magnetization 
 augmentation part        0.4989121 magnetization 

 Free energy of the ion-electron system (eV)
  ---------------------------------------------------
  alpha Z        PSCENC =         0.40002888
  Ewald energy   TEWEN  =      -108.26781391
  -1/2 Hartree   DENC   =      -392.21764022
  -exchange  EXHF       =         0.00000000
  -V(xc)+E(xc)   XCENC  =        36.82847965
  PAW double counting   =       473.64861467     -476.00037487
  entropy T*S    EENTRO =        -0.57503121
  eigenvalues    EBANDS =      -114.25908188
  atomic energy  EATOM  =       579.39041991
  ---------------------------------------------------
  free energy    TOTEN  =        -1.05239897 eV

  energy without entropy =       -0.47736777  energy(sigma->0) =       -0.76488337


--------------------------------------------------------------------------------------------------------




 average (electrostatic) potential at core
  the test charge radii are     0.6991  0.7215
  (the norm of the test charge is              1.0000)
       1 -63.9933       2 -81.0102
 
 
 
 E-fermi :  -6.7232     XC(G=0):  -0.9299     alpha+bet : -0.1603


 k-point   1 :       0.0000    0.0000    0.0000
  band No.  band energies     occupation 
      1     -21.6346      2.00000
      2     -15.2205      2.00000
      3      -6.8119      1.46959
      4      -6.7998      1.41204
      5      -6.7996      1.41103
      6      -6.6483      0.59639
      7      -6.6482      0.59571
      8      -6.6312      0.51524
      9      -0.5588      0.00000


--------------------------------------------------------------------------------------------------------


 soft charge-density along one line, spin component           1
         0         1         2         3         4         5         6         7         8         9
 total charge-density along one line
 
 pseudopotential strength for first ion, spin component:           1
 10.538  14.022   0.000   0.000   0.000  -0.000  -0.000  -0.000
 14.022  18.657   0.000   0.000   0.000  -0.000  -0.000  -0.000
  0.000   0.000  -4.682   0.000  -0.000   9.185  -0.000   0.000
  0.000   0.000   0.000  -4.684  -0.000  -0.000   9.190   0.000
  0.000   0.000  -0.000  -0.000  -4.682   0.000   0.000   9.186
 -0.000  -0.000   9.185  -0.000   0.000 -20.172   0.000  -0.000
 -0.000  -0.000  -0.000   9.190   0.000   0.000 -20.181  -0.000
 -0.000  -0.000   0.000   0.000   9.186  -0.000  -0.000 -20.173
 total augmentation occupancy for first ion, spin component:           1
  1.753   0.111   0.000   0.001   0.000   0.000  -0.000   0.000
  0.111   0.007   0.000  -0.001   0.000   0.000  -0.000   0.000
  0.000   0.000   0.646   0.000   0.000   0.002   0.000   0.000
  0.001  -0.001   0.000   0.604   0.000   0.000   0.002   0.000
  0.000   0.000   0.000   0.000   0.646   0.000   0.000   0.002
  0.000   0.000   0.002   0.000   0.000   0.000   0.000   0.000
 -0.000  -0.000   0.000   0.002   0.000   0.000   0.000   0.000
  0.000   0.000   0.000   0.000   0.002   0.000   0.000   0.000


------------------------ aborting loop because EDIFF is reached ----------------------------------------


    CHARGE:  cpu time    0.06: real time    0.06
    FORLOC:  cpu time    0.06: real time    0.06
    FORNL :  cpu time    0.04: real time    0.04
    STRESS:  cpu time    0.23: real time    0.23
    FORCOR:  cpu time    0.86: real time    0.86
    FORHAR:  cpu time    0.20: real time    0.20
    MIXING:  cpu time    0.13: real time    0.13

  FORCE on cell =-STRESS in cart. coord.  units (eV):
  Direction    XX          YY          ZZ          XY          YZ          ZX
  --------------------------------------------------------------------------------------
  Alpha Z     0.40003     0.40003     0.40003
  Ewald     -66.62421   -70.13627    28.49256     0.00000    -0.00000    -0.00000
  Hartree   103.51336   100.10843   189.75867    -0.00000    -0.00000    -0.00000
  E(xc)     -40.36803   -40.36710   -40.37043     0.00000     0.00000    -0.00000
  Local    -164.97553  -158.08561  -346.24962     0.00000     0.00000     0.00000
  n-local   -15.03970   -15.04421   -14.91249     0.00000    -0.00000    -0.00000
  augment     5.82323     5.82674     5.85262    -0.00000    -0.00000     0.00000
  Kinetic   176.62525   176.67739   175.94124     0.00000    -0.00000     0.00000
  Fock        0.00000     0.00000     0.00000     0.00000     0.00000     0.00000
  -------------------------------------------------------------------------------------
  Total      -0.64559    -0.62060    -1.08742     0.00000     0.00000     0.00000
  in kB      -0.94694    -0.91027    -1.59500     0.00000     0.00000     0.00000
  external pressure =       -1.15 kB  Pullay stress =        0.00 kB


 VOLUME and BASIS-vectors are now :
 -----------------------------------------------------------------------------
  energy-cutoff  :      400.00
  volume of cell :     1092.32
      direct lattice vectors                 reciprocal lattice vectors
    10.100000000  0.000000000  0.000000000     0.099009901  0.000000000  0.000000000
     0.000000000 10.300000000  0.000000000     0.000000000  0.097087379  0.000000000
     0.000000000  0.000000000 10.500000000     0.000000000  0.000000000  0.095238095

  length of vectors
    10.100000000 10.300000000 10.500000000     0.099009901  0.097087379  0.095238095


 FORCES acting on ions
    electron-ion (+dipol)            ewald-force                    non-local-force                 convergence-correction
 -----------------------------------------------------------------------------------------------
   0.108E-15 0.334E-15 0.512E+00   -.829E-16 0.962E-17 -.514E+00   0.000E+00 0.000E+00 0.842E-02   0.658E-15 -.270E-13 -.186E-02
   0.356E-14 0.451E-14 -.501E+00   0.114E-15 0.475E-17 0.514E+00   0.000E+00 0.000E+00 -.212E-01   -.121E-13 0.421E-13 -.271E-02
 -----------------------------------------------------------------------------------------------
   0.367E-14 0.484E-14 0.113E-01   0.315E-16 0.144E-16 0.000E+00   0.000E+00 0.000E+00 -.128E-01   -.115E-13 0.152E-13 -.457E-02
 
 
 POSITION                                       TOTAL-FORCE (eV/Angst)
 -----------------------------------------------------------------------------------
      0.00000      0.00000      0.00000         0.000000      0.000000      0.008400
      0.00000      0.00000      5.20000         0.000000      0.000000     -0.008400
 -----------------------------------------------------------------------------------
    total drift:                               -0.000000      0.000000     -0.006054


--------------------------------------------------------------------------------------------------------



  FREE ENERGIE OF THE ION-ELECTRON SYSTEM (eV)
  ---------------------------------------------------
  free  energy   TOTEN  =        -1.05239897 eV

  energy  without entropy=       -0.47736777  energy(sigma->0) =       -0.76488337
 


--------------------------------------------------------------------------------------------------------


    POTLOK:  cpu time    0.82: real time    0.82


--------------------------------------------------------------------------------------------------------


     LOOP+:  cpu time   41.13: real time   41.17
    4ORBIT:  cpu time    0.00: real time    0.00

 total amount of memory used by VASP on root node   140193. kBytes
========================================================================

   base      :      30000. kBytes
   nonl-proj :       3171. kBytes
   fftplans  :      37440. kBytes
   grid      :      66720. kBytes
   one-center:          6. kBytes
   wavefun   :       2856. kBytes
 
  
  
 General timing and accounting informations for this job:
 ========================================================
  
                  Total CPU time used (sec):       42.572
                            User time (sec):       42.244
                          System time (sec):        0.328
                         Elapsed time (sec):       42.605
  
                   Maximum memory used (kb):      240216.
                   Average memory used (kb):           0.
  
                          Minor page faults:       139396
                          Major page faults:            0
                 Voluntary context switches:            0
