<?xml version="1.0" encoding="ISO-8859-1"?>
<modeling>
 <generator>
  <i name="program" type="string">vasp </i>
  <i name="version" type="string">5.3.3  </i>
  <i name="subversion" type="string">18Dez12 (build Sep  7 2015 22:32:56) complex                          parallel </i>
  <i name="platform" type="string">LinuxIFC </i>
  <i name="date" type="string">2022 12 16 </i>
  <i name="time" type="string">14:48:36 </i>
 </generator>
 <incar>
  <i type="string" name="SYSTEM"> Crystal</i>
  <i type="int" name="ISTART">     0</i>
  <i type="string" name="PREC">normal</i>
  <i type="string" name="ALGO"> fast</i>
  <i type="int" name="NSIM">     4</i>
  <i type="int" name="ISPIN">     2</i>
  <i type="int" name="ICHARG">     2</i>
  <i type="int" name="NELMDL">   -10</i>
  <i type="int" name="NELMIN">     4</i>
  <i type="int" name="IBRION">     2</i>
  <i name="EDIFF">      0.00010000</i>
  <i name="EDIFFG">     -0.01000000</i>
  <i type="int" name="NSW">   300</i>
  <i name="ENCUT">    350.00000000</i>
  <i type="logical" name="LREAL"> F  </i>
  <i type="int" name="ISMEAR">     2</i>
  <i name="SIGMA">      0.10000000</i>
  <i type="logical" name="LWAVE"> F  </i>
  <i type="logical" name="LCHARG"> F  </i>
 </incar>
 <kpoints>
  <generation param="Gamma">
   <v type="int" name="divisions">       5        5        1 </v>
   <v name="usershift">      0.00000000       0.00000000       0.00000000 </v>
   <v name="genvec1">      0.20000000       0.00000000       0.00000000 </v>
   <v name="genvec2">      0.00000000       0.20000000       0.00000000 </v>
   <v name="genvec3">      0.00000000       0.00000000       1.00000000 </v>
   <v name="shift">      0.00000000       0.00000000       0.00000000 </v>
  </generation>
  <varray name="kpointlist" >
   <v>       0.00000000       0.00000000       0.00000000 </v>
   <v>       0.20000000      -0.00000000       0.00000000 </v>
   <v>       0.40000000      -0.00000000       0.00000000 </v>
   <v>       0.20000000       0.20000000       0.00000000 </v>
   <v>       0.40000000       0.20000000       0.00000000 </v>
  </varray>
  <varray name="weights" >
   <v>       0.04000000 </v>
   <v>       0.24000000 </v>
   <v>       0.24000000 </v>
   <v>       0.24000000 </v>
   <v>       0.24000000 </v>
  </varray>
 </kpoints>
 <parameters>
  <separator name="general" >
   <i type="string" name="SYSTEM">Crystal</i>
   <i type="logical" name="LCOMPAT"> F  </i>
  </separator>
  <separator name="electronic" >
   <i type="string" name="PREC">normal</i>
   <i name="ENMAX">    350.00000000</i>
   <i name="ENAUG">    605.39200000</i>
   <i name="EDIFF">      0.00010000</i>
   <i type="int" name="IALGO">    68</i>
   <i type="int" name="IWAVPR">    11</i>
   <i type="int" name="NBANDS">   123</i>
   <i name="NELECT">    180.00000000</i>
   <i type="int" name="TURBO">     0</i>
   <i type="int" name="IRESTART">     0</i>
   <i type="int" name="NREBOOT">     0</i>
   <i type="int" name="NMIN">     0</i>
   <i name="EREF">      0.00000000</i>
   <separator name="electronic smearing" >
    <i type="int" name="ISMEAR">     2</i>
    <i name="SIGMA">      0.10000000</i>
    <i name="KSPACING">      0.50000000</i>
    <i type="logical" name="KGAMMA"> T  </i>
   </separator>
   <separator name="electronic projectors" >
    <i type="logical" name="LREAL"> F  </i>
    <v name="ROPT">      0.00000000      0.00000000      0.00000000</v>
    <i type="int" name="LMAXPAW">  -100</i>
    <i type="int" name="LMAXMIX">     2</i>
    <i type="logical" name="NLSPLINE"> F  </i>
   </separator>
   <separator name="electronic startup" >
    <i type="int" name="ISTART">     0</i>
    <i type="int" name="ICHARG">     2</i>
    <i type="int" name="INIWAV">     1</i>
   </separator>
   <separator name="electronic spin" >
    <i type="int" name="ISPIN">     2</i>
    <i type="logical" name="LNONCOLLINEAR"> F  </i>
    <v name="MAGMOM">      1.00000000      1.00000000      1.00000000      1.00000000      1.00000000      1.00000000      1.00000000      1.00000000      1.00000000      1.00000000      1.00000000      1.00000000      1.00000000      1.00000000      1.00000000      1.00000000      1.00000000      1.00000000      1.00000000      1.00000000
      1.00000000      1.00000000      1.00000000      1.00000000      1.00000000      1.00000000      1.00000000      1.00000000      1.00000000      1.00000000</v>
    <i name="NUPDOWN">     -1.00000000</i>
    <i type="logical" name="LSORBIT"> F  </i>
    <v name="SAXIS">      0.00000000      0.00000000      1.00000000</v>
    <i type="logical" name="LSPIRAL"> F  </i>
    <v name="QSPIRAL">      0.00000000      0.00000000      0.00000000</v>
    <i type="logical" name="LZEROZ"> F  </i>
   </separator>
   <separator name="electronic exchange-correlation" >
    <i type="logical" name="LASPH"> F  </i>
    <i type="logical" name="LMETAGGA"> F  </i>
   </separator>
   <separator name="electronic convergence" >
    <i type="int" name="NELM">    60</i>
    <i type="int" name="NELMDL">   -10</i>
    <i type="int" name="NELMIN">     4</i>
    <i name="ENINI">    350.00000000</i>
    <separator name="electronic convergence detail" >
     <i type="logical" name="LDIAG"> T  </i>
     <i type="logical" name="LSUBROT"> T  </i>
     <i name="WEIMIN">      0.00100000</i>
     <i name="EBREAK">      0.00000020</i>
     <i name="DEPER">      0.30000000</i>
     <i type="int" name="NRMM">     4</i>
     <i name="TIME">      0.40000000</i>
    </separator>
   </separator>
   <separator name="electronic mixer" >
    <i name="AMIX">      0.40000000</i>
    <i name="BMIX">      1.00000000</i>
    <i name="AMIN">      0.10000000</i>
    <i name="AMIX_MAG">      1.60000000</i>
    <i name="BMIX_MAG">      1.00000000</i>
    <separator name="electronic mixer details" >
     <i type="int" name="IMIX">     4</i>
     <i type="int" name="MAXMIX">   -45</i>
     <i name="WC">    100.00000000</i>
     <i type="int" name="INIMIX">     1</i>
     <i type="int" name="MIXPRE">     1</i>
     <i type="int" name="MREMOVE">     5</i>
    </separator>
   </separator>
   <separator name="electronic dipolcorrection" >
    <i type="logical" name="LDIPOL"> F  </i>
    <i type="logical" name="LMONO"> F  </i>
    <i type="int" name="IDIPOL">     0</i>
    <i name="EPSILON">      1.00000000</i>
    <v name="DIPOL">   -100.00000000   -100.00000000   -100.00000000</v>
    <i name="EFIELD">      0.00000000</i>
   </separator>
  </separator>
  <separator name="grids" >
   <i type="int" name="NGX">    24</i>
   <i type="int" name="NGY">    24</i>
   <i type="int" name="NGZ">    70</i>
   <i type="int" name="NGXF">    48</i>
   <i type="int" name="NGYF">    48</i>
   <i type="int" name="NGZF">   140</i>
   <i type="logical" name="ADDGRID"> F  </i>
  </separator>
  <separator name="ionic" >
   <i type="int" name="NSW">   300</i>
   <i type="int" name="IBRION">     2</i>
   <i type="int" name="ISIF">     2</i>
   <i name="PSTRESS">      0.00000000</i>
   <i name="EDIFFG">     -0.01000000</i>
   <i type="int" name="NFREE">     1</i>
   <i name="POTIM">      0.50000000</i>
   <i name="SMASS">     -3.00000000</i>
   <i name="SCALEE">      1.00000000</i>
  </separator>
  <separator name="ionic md" >
   <i name="TEBEG">      0.00010000</i>
   <i name="TEEND">      0.00010000</i>
   <i type="int" name="NBLOCK">     1</i>
   <i type="int" name="KBLOCK">   300</i>
   <i type="int" name="NPACO">   256</i>
   <i name="APACO">     16.00000000</i>
  </separator>
  <separator name="symmetry" >
   <i type="int" name="ISYM">     2</i>
   <i name="SYMPREC">      0.00001000</i>
  </separator>
  <separator name="dos" >
   <i type="logical" name="LORBIT"> F  </i>
   <v name="RWIGS">     -1.00000000     -1.00000000     -1.00000000</v>
   <i type="int" name="NEDOS">   301</i>
   <i name="EMIN">     10.00000000</i>
   <i name="EMAX">    -10.00000000</i>
   <i name="EFERMI">      0.00000000</i>
  </separator>
  <separator name="writing" >
   <i type="int" name="NWRITE">     2</i>
   <i type="logical" name="LWAVE"> F  </i>
   <i type="logical" name="LCHARG"> F  </i>
   <i type="logical" name="LPARD"> F  </i>
   <i type="logical" name="LVTOT"> F  </i>
   <i type="logical" name="LVHAR"> F  </i>
   <i type="logical" name="LELF"> F  </i>
   <i type="logical" name="LOPTICS"> F  </i>
   <v name="STM">      0.00000000      0.00000000      0.00000000      0.00000000      0.00000000      0.00000000      0.00000000</v>
  </separator>
  <separator name="performance" >
   <i type="int" name="NPAR">     1</i>
   <i type="int" name="NSIM">     4</i>
   <i type="int" name="NBLK">    -1</i>
   <i type="logical" name="LPLANE"> T  </i>
   <i type="logical" name="LSCALAPACK"> F  </i>
   <i type="logical" name="LSCAAWARE"> F  </i>
   <i type="logical" name="LSCALU"> F  </i>
   <i type="logical" name="LASYNC"> F  </i>
   <i type="logical" name="LORBITALREAL"> F  </i>
  </separator>
  <separator name="miscellaneous" >
   <i type="int" name="IDIOT">     3</i>
   <i type="logical" name="LMUSIC"> F  </i>
   <v name="POMASS">      7.01000000     92.00000000     16.00000000</v>
   <v name="DARWINR">      0.00000000      0.00000000      0.00000000</v>
   <v name="DARWINV">      1.00000000      1.00000000      1.00000000</v>
   <i type="logical" name="LCORR"> T  </i>
  </separator>
  <i type="logical" name="GGA_COMPAT"> T  </i>
  <i type="logical" name="LBERRY"> F  </i>
  <i type="int" name="ICORELEVEL">     0</i>
  <i type="logical" name="LDAU"> F  </i>
  <i type="int" name="I_CONSTRAINED_M">     0</i>
  <separator name="electronic exchange-correlation" >
   <i type="string" name="GGA">--</i>
   <i type="int" name="VOSKOWN">     0</i>
   <i type="logical" name="LHFCALC"> F  </i>
   <i type="string" name="PRECFOCK"></i>
   <i type="logical" name="LSYMGRAD"> F  </i>
   <i type="logical" name="LHFONE"> F  </i>
   <i type="logical" name="LRHFCALC"> F  </i>
   <i type="logical" name="LTHOMAS"> F  </i>
   <i type="logical" name="LMODELHF"> F  </i>
   <i name="ENCUT4O">     -1.00000000</i>
   <i type="int" name="EXXOEP">     0</i>
   <i type="int" name="FOURORBIT">     0</i>
   <i name="AEXX">      0.00000000</i>
   <i name="HFALPHA">      0.00000000</i>
   <i name="MCALPHA">      0.00000000</i>
   <i name="ALDAX">      1.00000000</i>
   <i name="AGGAX">      1.00000000</i>
   <i name="ALDAC">      1.00000000</i>
   <i name="AGGAC">      1.00000000</i>
   <i type="int" name="NKREDX">     1</i>
   <i type="int" name="NKREDY">     1</i>
   <i type="int" name="NKREDZ">     1</i>
   <i type="logical" name="SHIFTRED"> F  </i>
   <i type="logical" name="ODDONLY"> F  </i>
   <i type="logical" name="EVENONLY"> F  </i>
   <i type="int" name="LMAXFOCK">     0</i>
   <i type="int" name="NMAXFOCKAE">     0</i>
   <i type="logical" name="LFOCKAEDFT"> F  </i>
   <i name="HFSCREEN">      0.00000000</i>
   <i name="HFSCREENC">      0.00000000</i>
   <i type="int" name="NBANDSGWLOW">     0</i>
  </separator>
  <separator name="vdW DFT" >
   <i type="logical" name="LUSE_VDW"> F  </i>
   <i name="Zab_VDW">     -0.84910000</i>
   <i name="PARAM1">      0.12340000</i>
   <i name="PARAM2">      1.00000000</i>
   <i name="PARAM3">      0.00000000</i>
  </separator>
  <separator name="model GW" >
   <i type="int" name="MODEL_GW">     0</i>
   <i name="MODEL_EPS0">      6.67602379</i>
   <i name="MODEL_ALPHA">      1.00000000</i>
  </separator>
  <separator name="linear response parameters" >
   <i type="logical" name="LEPSILON"> F  </i>
   <i type="logical" name="LRPA"> F  </i>
   <i type="logical" name="LNABLA"> F  </i>
   <i type="logical" name="LVEL"> F  </i>
   <i type="int" name="KINTER">     0</i>
   <i name="CSHIFT">      0.10000000</i>
   <i name="OMEGAMAX">     -1.00000000</i>
   <i name="DEG_THRESHOLD">      0.00200000</i>
  </separator>
  <separator name="orbital magnetization" >
   <i type="logical" name="NUCIND"> F  </i>
   <v name="MAGPOS">      0.00000000      0.00000000      0.00000000</v>
   <i type="logical" name="LNICSALL"> T  </i>
   <i type="logical" name="ORBITALMAG"> F  </i>
   <i type="logical" name="LMAGBLOCH"> F  </i>
   <i type="logical" name="LCHIMAG"> F  </i>
   <i type="logical" name="LGAUGE"> T  </i>
   <i type="int" name="MAGATOM">     0</i>
   <v name="MAGDIPOL">      0.00000000      0.00000000      0.00000000</v>
   <v name="AVECCONST">      0.00000000      0.00000000      0.00000000</v>
  </separator>
  <separator name="response functions" >
   <i type="logical" name="LADDER"> F  </i>
   <i type="logical" name="LFXC"> F  </i>
   <i type="logical" name="LHARTREE"> T  </i>
   <i type="int" name="IBSE">     0</i>
   <i type="logical" name="LTCTE"> F  </i>
   <i type="logical" name="LTETE"> F  </i>
   <i type="logical" name="LTRIPLET"> F  </i>
   <i type="logical" name="LFXCEPS"> F  </i>
   <i type="logical" name="L2ORDER"> F  </i>
   <i type="logical" name="LUSEW"> F  </i>
   <i name="ENCUTGW">     -2.00000000</i>
   <i name="ENCUTGWSOFT">     -2.00000000</i>
   <i name="ENCUTLF">     -1.00000000</i>
   <i type="int" name="LMAXMP2">    -1</i>
   <i name="SCISSOR">      0.00000000</i>
   <i type="int" name="NOMEGA">     0</i>
   <i type="int" name="NOMEGAR">     0</i>
   <i type="int" name="NBANDSGW">    -1</i>
   <i type="int" name="NBANDSO">    -1</i>
   <i type="int" name="NBANDSV">    -1</i>
   <i type="int" name="NELM">     1</i>
   <i type="int" name="DIM">     3</i>
   <i type="int" name="ANTIRES">     0</i>
   <i name="OMEGAMAX">    -30.00000000</i>
   <i name="OMEGATL">   -200.00000000</i>
   <i type="int" name="OMEGAGRID">     0</i>
   <i name="CSHIFT">     -0.10000000</i>
   <i type="logical" name="SELFENERGY"> F  </i>
   <i type="logical" name="LSPECTRAL"> F  </i>
   <i type="logical" name="ODDONLYGW"> F  </i>
   <i type="logical" name="EVENONLYGW"> F  </i>
   <i type="int" name="NKREDLFX">     1</i>
   <i type="int" name="NKREDLFY">     1</i>
   <i type="int" name="NKREDLFZ">     1</i>
   <i type="int" name="MAXMEM">  1800</i>
   <i type="int" name="TELESCOPE">     0</i>
  </separator>
 </parameters>
 <atominfo>
  <atoms>      30 </atoms>
  <types>       3 </types>
  <array name="atoms" >
   <dimension dim="1">ion</dimension>
   <field type="string">element</field>
   <field type="int">atomtype</field>
   <set>
    <rc><c>Li</c><c>   1</c></rc>
    <rc><c>Li</c><c>   1</c></rc>
    <rc><c>Li</c><c>   1</c></rc>
    <rc><c>Li</c><c>   1</c></rc>
    <rc><c>Li</c><c>   1</c></rc>
    <rc><c>Li</c><c>   1</c></rc>
    <rc><c>Nb</c><c>   2</c></rc>
    <rc><c>Nb</c><c>   2</c></rc>
    <rc><c>Nb</c><c>   2</c></rc>
    <rc><c>Nb</c><c>   2</c></rc>
    <rc><c>Nb</c><c>   2</c></rc>
    <rc><c>Nb</c><c>   2</c></rc>
    <rc><c>O </c><c>   3</c></rc>
    <rc><c>O </c><c>   3</c></rc>
    <rc><c>O </c><c>   3</c></rc>
    <rc><c>O </c><c>   3</c></rc>
    <rc><c>O </c><c>   3</c></rc>
    <rc><c>O </c><c>   3</c></rc>
    <rc><c>O </c><c>   3</c></rc>
    <rc><c>O </c><c>   3</c></rc>
    <rc><c>O </c><c>   3</c></rc>
    <rc><c>O </c><c>   3</c></rc>
    <rc><c>O </c><c>   3</c></rc>
    <rc><c>O </c><c>   3</c></rc>
    <rc><c>O </c><c>   3</c></rc>
    <rc><c>O </c><c>   3</c></rc>
    <rc><c>O </c><c>   3</c></rc>
    <rc><c>O </c><c>   3</c></rc>
    <rc><c>O </c><c>   3</c></rc>
    <rc><c>O </c><c>   3</c></rc>
   </set>
  </array>
  <array name="atomtypes" >
   <dimension dim="1">type</dimension>
   <field type="int">atomspertype</field>
   <field type="string">element</field>
   <field>mass</field>
   <field>valence</field>
   <field type="string">pseudopotential</field>
   <set>
    <rc><c>   6</c><c>Li</c><c>      7.01000000</c><c>      1.00000000</c><c>  PAW_PBE Li 17Jan2003                  </c></rc>
    <rc><c>   6</c><c>Nb</c><c>     92.00000000</c><c>     11.00000000</c><c>  PAW_PBE Nb_pv 08Apr2002               </c></rc>
    <rc><c>  18</c><c>O </c><c>     16.00000000</c><c>      6.00000000</c><c>  PAW_PBE O 08Apr2002                   </c></rc>
   </set>
  </array>
 </atominfo>
 <structure name="initialpos" >
  <crystal>
   <varray name="basis" >
    <v>       2.61149501      -4.52324203       0.00000000 </v>
    <v>       2.61149501       4.52324203       0.00000000 </v>
    <v>       0.00000000       0.00000000      14.12924181 </v>
   </varray>
   <i name="volume">    333.80118964 </i>
   <varray name="rec_basis" >
    <v>       0.19146121      -0.11054018       0.00000000 </v>
    <v>       0.19146121       0.11054018       0.00000000 </v>
    <v>       0.00000000       0.00000000       0.07077521 </v>
   </varray>
  </crystal>
  <varray name="positions" >
   <v>       0.66666667       0.33333333       0.05050133 </v>
   <v>       0.00000000       0.00000000       0.21716800 </v>
   <v>       0.33333333       0.66666667       0.38383467 </v>
   <v>       0.66666667       0.33333333       0.55050133 </v>
   <v>       0.00000000       0.00000000       0.71716800 </v>
   <v>       0.33333333       0.66666667       0.88383467 </v>
   <v>       0.66666667       0.33333333       0.33256433 </v>
   <v>       0.33333333       0.66666667       0.16589767 </v>
   <v>       0.33333333       0.66666667       0.66589767 </v>
   <v>       0.00000000       0.00000000       0.49923100 </v>
   <v>       0.00000000       0.00000000       0.99923100 </v>
   <v>       0.66666667       0.33333333       0.83256433 </v>
   <v>       0.62036767       0.99005133       0.27000033 </v>
   <v>       0.00994867       0.63031633       0.27000033 </v>
   <v>       0.36968367       0.37963233       0.27000033 </v>
   <v>       0.03635033       0.32338467       0.10333367 </v>
   <v>       0.67661533       0.71296567       0.10333367 </v>
   <v>       0.28703433       0.96364967       0.10333367 </v>
   <v>       0.28703433       0.32338467       0.60333367 </v>
   <v>       0.67661533       0.96364967       0.60333367 </v>
   <v>       0.03635033       0.71296567       0.60333367 </v>
   <v>       0.70301700       0.65671800       0.43666700 </v>
   <v>       0.34328200       0.04629900       0.43666700 </v>
   <v>       0.95370100       0.29698300       0.43666700 </v>
   <v>       0.95370100       0.65671800       0.93666700 </v>
   <v>       0.34328200       0.29698300       0.93666700 </v>
   <v>       0.70301700       0.04629900       0.93666700 </v>
   <v>       0.36968367       0.99005133       0.77000033 </v>
   <v>       0.00994867       0.37963233       0.77000033 </v>
   <v>       0.62036767       0.63031633       0.77000033 </v>
  </varray>
 </structure>
 <calculation>
  <scstep>
   <time name="dav">   37.42   37.45</time>
   <time name="total">   38.21   38.24</time>
   <energy>
    <i name="alphaZ">    899.04847540 </i>
    <i name="ewald"> -10421.23681545 </i>
    <i name="hartreedc">  -3706.02751757 </i>
    <i name="XCdc">    634.52505980 </i>
    <i name="pawpsdc">  11294.18101673 </i>
    <i name="pawaedc"> -11197.39956708 </i>
    <i name="eentropy">      0.00002391 </i>
    <i name="bandstr">    221.06329661 </i>
    <i name="atom">  14068.13175480 </i>
    <i name="e_fr_energy">   1792.28572715 </i>
    <i name="e_wo_entrp">   1792.28570324 </i>
    <i name="e_0_energy">   1792.28572117 </i>
   </energy>
  </scstep>
  <scstep>
   <time name="dav">   39.28   39.32</time>
   <time name="total">   39.29   39.33</time>
   <energy>
    <i name="e_fr_energy">      8.53120938 </i>
    <i name="e_wo_entrp">      8.52772540 </i>
    <i name="e_0_energy">      8.53033839 </i>
   </energy>
  </scstep>
  <scstep>
   <time name="dav">   51.90   51.95</time>
   <time name="total">   51.90   51.95</time>
   <energy>
    <i name="e_fr_energy">   -268.68852656 </i>
    <i name="e_wo_entrp">   -268.68852656 </i>
    <i name="e_0_energy">   -268.68852656 </i>
   </energy>
  </scstep>
  <scstep>
   <time name="dav">   49.98   50.03</time>
   <time name="total">   49.98   50.03</time>
   <energy>
    <i name="e_fr_energy">   -279.71366875 </i>
    <i name="e_wo_entrp">   -279.71366875 </i>
    <i name="e_0_energy">   -279.71366875 </i>
   </energy>
  </scstep>
  <scstep>
   <time name="dav">   53.17   53.22</time>
   <time name="total">   53.17   53.22</time>
   <energy>
    <i name="e_fr_energy">   -279.97570178 </i>
    <i name="e_wo_entrp">   -279.97570178 </i>
    <i name="e_0_energy">   -279.97570178 </i>
   </energy>
  </scstep>
  <scstep>
   <time name="dav">   51.10   51.14</time>
   <time name="total">   51.10   51.15</time>
   <energy>
    <i name="e_fr_energy">   -279.98080012 </i>
    <i name="e_wo_entrp">   -279.98080012 </i>
    <i name="e_0_energy">   -279.98080012 </i>
   </energy>
  </scstep>
  <scstep>
   <time name="dav">   48.25   48.30</time>
   <time name="total">   48.25   48.30</time>
   <energy>
    <i name="e_fr_energy">   -279.98095610 </i>
    <i name="e_wo_entrp">   -279.98095610 </i>
    <i name="e_0_energy">   -279.98095610 </i>
   </energy>
  </scstep>
  <scstep>
   <time name="dav">   34.64   34.67</time>
   <time name="total">   34.64   34.67</time>
   <energy>
    <i name="e_fr_energy">   -279.98096209 </i>
    <i name="e_wo_entrp">   -279.98096209 </i>
    <i name="e_0_energy">   -279.98096209 </i>
   </energy>
  </scstep>
  <scstep>
   <time name="dav">   32.15   32.18</time>
   <time name="total">   32.15   32.18</time>
   <energy>
    <i name="e_fr_energy">   -279.98096338 </i>
    <i name="e_wo_entrp">   -279.98096338 </i>
    <i name="e_0_energy">   -279.98096338 </i>
   </energy>
  </scstep>
  <scstep>
   <time name="dav">   29.91   29.94</time>
   <time name="total">   32.16   32.19</time>
   <energy>
    <i name="e_fr_energy">   -279.98096394 </i>
    <i name="e_wo_entrp">   -279.98096394 </i>
    <i name="e_0_energy">   -279.98096394 </i>
   </energy>
  </scstep>
  <scstep>
   <time name="diag">    6.84    6.84</time>
   <time name="diis">   34.92   34.95</time>
   <time name="orth">    0.93    0.93</time>
   <time name="total">   45.93   45.97</time>
   <energy>
    <i name="e_fr_energy">   -204.20134559 </i>
    <i name="e_wo_entrp">   -204.20134559 </i>
    <i name="e_0_energy">   -204.20134559 </i>
   </energy>
  </scstep>
  <scstep>
   <time name="diag">    6.84    6.84</time>
   <time name="diis">   31.34   31.37</time>
   <time name="orth">    0.93    0.93</time>
   <time name="total">   42.18   42.22</time>
   <energy>
    <i name="e_fr_energy">   -213.13966949 </i>
    <i name="e_wo_entrp">   -213.13966949 </i>
    <i name="e_0_energy">   -213.13966949 </i>
   </energy>
  </scstep>
  <scstep>
   <time name="diag">    6.84    6.84</time>
   <time name="diis">   28.86   28.89</time>
   <time name="orth">    0.93    0.93</time>
   <time name="total">   39.71   39.75</time>
   <energy>
    <i name="e_fr_energy">   -232.24351257 </i>
    <i name="e_wo_entrp">   -232.24351257 </i>
    <i name="e_0_energy">   -232.24351257 </i>
   </energy>
  </scstep>
  <scstep>
   <time name="diag">    6.84    6.84</time>
   <time name="diis">   28.89   28.92</time>
   <time name="orth">    0.93    0.93</time>
   <time name="total">   39.74   39.77</time>
   <energy>
    <i name="e_fr_energy">   -235.53513768 </i>
    <i name="e_wo_entrp">   -235.53513768 </i>
    <i name="e_0_energy">   -235.53513768 </i>
   </energy>
  </scstep>
  <scstep>
   <time name="diag">    6.83    6.84</time>
   <time name="diis">   30.56   30.59</time>
   <time name="orth">    0.93    0.93</time>
   <time name="total">   41.43   41.47</time>
   <energy>
    <i name="e_fr_energy">   -236.55437348 </i>
    <i name="e_wo_entrp">   -236.55437348 </i>
    <i name="e_0_energy">   -236.55437348 </i>
   </energy>
  </scstep>
  <scstep>
   <time name="diag">    6.84    6.84</time>
   <time name="diis">   32.74   32.77</time>
   <time name="orth">    0.93    0.93</time>
   <time name="total">   43.53   43.57</time>
   <energy>
    <i name="e_fr_energy">   -236.66366351 </i>
    <i name="e_wo_entrp">   -236.66366351 </i>
    <i name="e_0_energy">   -236.66366351 </i>
   </energy>
  </scstep>
  <scstep>
   <time name="diag">    6.84    6.84</time>
   <time name="diis">   32.37   32.40</time>
   <time name="orth">    0.93    0.93</time>
   <time name="total">   43.16   43.20</time>
   <energy>
    <i name="e_fr_energy">   -236.72813856 </i>
    <i name="e_wo_entrp">   -236.72813856 </i>
    <i name="e_0_energy">   -236.72813856 </i>
   </energy>
  </scstep>
  <scstep>
   <time name="diag">    6.83    6.84</time>
   <time name="diis">   32.10   32.13</time>
   <time name="orth">    0.93    0.93</time>
   <time name="total">   42.89   42.93</time>
   <energy>
    <i name="e_fr_energy">   -236.72657384 </i>
    <i name="e_wo_entrp">   -236.72657384 </i>
    <i name="e_0_energy">   -236.72657384 </i>
   </energy>
  </scstep>
  <scstep>
   <time name="diag">    6.83    6.84</time>
   <time name="diis">   27.10   27.12</time>
   <time name="orth">    0.93    0.93</time>
   <time name="total">   37.89   37.92</time>
   <energy>
    <i name="e_fr_energy">   -236.72683508 </i>
    <i name="e_wo_entrp">   -236.72683508 </i>
    <i name="e_0_energy">   -236.72683508 </i>
   </energy>
  </scstep>
  <scstep>
   <time name="diag">    6.84    6.84</time>
   <time name="diis">   23.69   23.71</time>
   <time name="orth">    0.93    0.93</time>
   <time name="total">   34.48   34.52</time>
   <energy>
    <i name="e_fr_energy">   -236.72712342 </i>
    <i name="e_wo_entrp">   -236.72712342 </i>
    <i name="e_0_energy">   -236.72712342 </i>
   </energy>
  </scstep>
  <scstep>
   <time name="diag">    6.79    6.80</time>
   <time name="diis">   18.94   18.96</time>
   <time name="orth">    0.93    0.93</time>
   <time name="total">   27.44   27.47</time>
   <energy>
    <i name="alphaZ">    899.04847540 </i>
    <i name="ewald"> -10421.23681545 </i>
    <i name="hartreedc">  -3787.51133611 </i>
    <i name="XCdc">    642.78668606 </i>
    <i name="pawpsdc">  22042.92891584 </i>
    <i name="pawaedc"> -21982.20097638 </i>
    <i name="eentropy">     -0.00000000 </i>
    <i name="bandstr">  -1698.67382835 </i>
    <i name="atom">  14068.13175480 </i>
    <i name="e_fr_energy">   -236.72712418 </i>
    <i name="e_wo_entrp">   -236.72712418 </i>
    <i name="e_0_energy">   -236.72712418 </i>
   </energy>
  </scstep>
  <structure>
   <crystal>
    <varray name="basis" >
     <v>       2.61149501      -4.52324203       0.00000000 </v>
     <v>       2.61149501       4.52324203       0.00000000 </v>
     <v>       0.00000000       0.00000000      14.12924181 </v>
    </varray>
    <i name="volume">    333.80118964 </i>
    <varray name="rec_basis" >
     <v>       0.19146121      -0.11054018       0.00000000 </v>
     <v>       0.19146121       0.11054018       0.00000000 </v>
     <v>       0.00000000       0.00000000       0.07077521 </v>
    </varray>
   </crystal>
   <varray name="positions" >
    <v>       0.66666667       0.33333333       0.05050133 </v>
    <v>       0.00000000       0.00000000       0.21716800 </v>
    <v>       0.33333333       0.66666667       0.38383467 </v>
    <v>       0.66666667       0.33333333       0.55050133 </v>
    <v>       0.00000000       0.00000000       0.71716800 </v>
    <v>       0.33333333       0.66666667       0.88383467 </v>
    <v>       0.66666667       0.33333333       0.33256433 </v>
    <v>       0.33333333       0.66666667       0.16589767 </v>
    <v>       0.33333333       0.66666667       0.66589767 </v>
    <v>       0.00000000       0.00000000       0.49923100 </v>
    <v>       0.00000000       0.00000000       0.99923100 </v>
    <v>       0.66666667       0.33333333       0.83256433 </v>
    <v>       0.62036767       0.99005133       0.27000033 </v>
    <v>       0.00994867       0.63031633       0.27000033 </v>
    <v>       0.36968367       0.37963233       0.27000033 </v>
    <v>       0.03635033       0.32338467       0.10333367 </v>
    <v>       0.67661533       0.71296567       0.10333367 </v>
    <v>       0.28703433       0.96364967       0.10333367 </v>
    <v>       0.28703433       0.32338467       0.60333367 </v>
    <v>       0.67661533       0.96364967       0.60333367 </v>
    <v>       0.03635033       0.71296567       0.60333367 </v>
    <v>       0.70301700       0.65671800       0.43666700 </v>
    <v>       0.34328200       0.04629900       0.43666700 </v>
    <v>       0.95370100       0.29698300       0.43666700 </v>
    <v>       0.95370100       0.65671800       0.93666700 </v>
    <v>       0.34328200       0.29698300       0.93666700 </v>
    <v>       0.70301700       0.04629900       0.93666700 </v>
    <v>       0.36968367       0.99005133       0.77000033 </v>
    <v>       0.00994867       0.37963233       0.77000033 </v>
    <v>       0.62036767       0.63031633       0.77000033 </v>
   </varray>
  </structure>
  <varray name="forces" >
   <v>       0.00000000      -0.00000000       0.00968016 </v>
   <v>       0.00000000      -0.00000000       0.00968016 </v>
   <v>       0.00000000      -0.00000000       0.00968016 </v>
   <v>       0.00000000      -0.00000000       0.00968016 </v>
   <v>       0.00000000      -0.00000000       0.00968016 </v>
   <v>       0.00000000      -0.00000000       0.00968016 </v>
   <v>       0.00000000      -0.00000000      -0.01491650 </v>
   <v>       0.00000000      -0.00000000      -0.01491650 </v>
   <v>       0.00000000      -0.00000000      -0.01491650 </v>
   <v>       0.00000000      -0.00000000      -0.01491650 </v>
   <v>       0.00000000      -0.00000000      -0.01491650 </v>
   <v>       0.00000000      -0.00000000      -0.01491650 </v>
   <v>       0.03801911       0.00297690       0.00174544 </v>
   <v>      -0.02158763       0.03143707       0.00174544 </v>
   <v>      -0.01643148      -0.03441397       0.00174544 </v>
   <v>       0.02158763       0.03143707       0.00174544 </v>
   <v>      -0.03801911       0.00297690       0.00174544 </v>
   <v>       0.01643148      -0.03441397       0.00174544 </v>
   <v>       0.03801911       0.00297690       0.00174544 </v>
   <v>      -0.02158763       0.03143707       0.00174544 </v>
   <v>      -0.01643148      -0.03441397       0.00174544 </v>
   <v>       0.02158763       0.03143707       0.00174544 </v>
   <v>      -0.03801911       0.00297690       0.00174544 </v>
   <v>       0.01643148      -0.03441397       0.00174544 </v>
   <v>       0.03801911       0.00297690       0.00174544 </v>
   <v>      -0.02158763       0.03143707       0.00174544 </v>
   <v>      -0.01643148      -0.03441397       0.00174544 </v>
   <v>       0.02158763       0.03143707       0.00174544 </v>
   <v>      -0.03801911       0.00297690       0.00174544 </v>
   <v>       0.01643148      -0.03441397       0.00174544 </v>
  </varray>
  <varray name="stress" >
   <v>    -162.62569032      -0.00000000      -0.00000000 </v>
   <v>       0.00000000    -162.62569032       0.00000000 </v>
   <v>      -0.00000000       0.00000000    -160.91641943 </v>
  </varray>
  <energy>
   <i name="e_fr_energy">   -236.72712418 </i>
   <i name="e_wo_entrp">   -236.72712418 </i>
   <i name="e_0_energy">     -0.00000000 </i>
  </energy>
  <time name="totalsc">  922.64  923.49</time>
 </calculation>
 <calculation>
  <scstep>
   <time name="dav">   44.17   44.22</time>
   <time name="total">   47.16   47.21</time>
   <energy>
    <i name="alphaZ">    899.04847540 </i>
    <i name="ewald"> -10420.97260231 </i>
    <i name="hartreedc">  -3787.57608665 </i>
    <i name="XCdc">    642.80417241 </i>
    <i name="pawpsdc">  22046.35905103 </i>
    <i name="pawaedc"> -21985.63588987 </i>
    <i name="eentropy">     -0.00000000 </i>
    <i name="bandstr">  -1698.88579649 </i>
    <i name="atom">  14068.13175480 </i>
    <i name="e_fr_energy">   -236.72692167 </i>
    <i name="e_wo_entrp">   -236.72692167 </i>
    <i name="e_0_energy">   -236.72692167 </i>
   </energy>
  </scstep>
  <scstep>
   <time name="diag">    6.84    6.84</time>
   <time name="diis">   29.94   29.97</time>
   <time name="orth">    0.93    0.93</time>
   <time name="total">   40.73   40.77</time>
   <energy>
    <i name="e_fr_energy">   -236.72818543 </i>
    <i name="e_wo_entrp">   -236.72818543 </i>
    <i name="e_0_energy">   -236.72818543 </i>
   </energy>
  </scstep>
  <scstep>
   <time name="diag">    6.83    6.84</time>
   <time name="diis">   24.79   24.82</time>
   <time name="orth">    0.93    0.93</time>
   <time name="total">   35.58   35.61</time>
   <energy>
    <i name="e_fr_energy">   -236.72816206 </i>
    <i name="e_wo_entrp">   -236.72816206 </i>
    <i name="e_0_energy">   -236.72816206 </i>
   </energy>
  </scstep>
  <scstep>
   <time name="diag">    6.84    6.84</time>
   <time name="diis">   18.86   18.88</time>
   <time name="orth">    0.93    0.93</time>
   <time name="total">   27.40   27.43</time>
   <energy>
    <i name="alphaZ">    899.04847540 </i>
    <i name="ewald"> -10420.97260231 </i>
    <i name="hartreedc">  -3787.63778018 </i>
    <i name="XCdc">    642.80113412 </i>
    <i name="pawpsdc">  22057.99706140 </i>
    <i name="pawaedc"> -21997.27118279 </i>
    <i name="eentropy">     -0.00000000 </i>
    <i name="bandstr">  -1698.82502178 </i>
    <i name="atom">  14068.13175480 </i>
    <i name="e_fr_energy">   -236.72816133 </i>
    <i name="e_wo_entrp">   -236.72816133 </i>
    <i name="e_0_energy">   -236.72816133 </i>
   </energy>
  </scstep>
  <structure>
   <crystal>
    <varray name="basis" >
     <v>       2.61149501      -4.52324203       0.00000000 </v>
     <v>       2.61149501       4.52324203       0.00000000 </v>
     <v>       0.00000000       0.00000000      14.12924181 </v>
    </varray>
    <i name="volume">    333.80118964 </i>
    <varray name="rec_basis" >
     <v>       0.19146121      -0.11054018       0.00000000 </v>
     <v>       0.19146121       0.11054018       0.00000000 </v>
     <v>       0.00000000       0.00000000       0.07077521 </v>
    </varray>
   </crystal>
   <varray name="positions" >
    <v>       0.66666667       0.33333333       0.05053439 </v>
    <v>       0.00000000       0.00000000       0.21720105 </v>
    <v>       0.33333333       0.66666667       0.38386772 </v>
    <v>       0.66666667       0.33333333       0.55053439 </v>
    <v>       0.00000000       0.00000000       0.71720105 </v>
    <v>       0.33333333       0.66666667       0.88386772 </v>
    <v>       0.66666667       0.33333333       0.33251340 </v>
    <v>       0.33333333       0.66666667       0.16584674 </v>
    <v>       0.33333333       0.66666667       0.66584674 </v>
    <v>       0.00000000       0.00000000       0.49918007 </v>
    <v>       0.00000000       0.00000000       0.99918007 </v>
    <v>       0.66666667       0.33333333       0.83251340 </v>
    <v>       0.62070296       0.99041838       0.27000629 </v>
    <v>       0.00958162       0.63028458       0.27000629 </v>
    <v>       0.36971542       0.37929704       0.27000629 </v>
    <v>       0.03638208       0.32375171       0.10333963 </v>
    <v>       0.67624829       0.71263037       0.10333963 </v>
    <v>       0.28736963       0.96361792       0.10333963 </v>
    <v>       0.28736963       0.32375171       0.60333963 </v>
    <v>       0.67624829       0.96361792       0.60333963 </v>
    <v>       0.03638208       0.71263037       0.60333963 </v>
    <v>       0.70304875       0.65708504       0.43667296 </v>
    <v>       0.34291496       0.04596371       0.43667296 </v>
    <v>       0.95403629       0.29695125       0.43667296 </v>
    <v>       0.95403629       0.65708504       0.93667296 </v>
    <v>       0.34291496       0.29695125       0.93667296 </v>
    <v>       0.70304875       0.04596371       0.93667296 </v>
    <v>       0.36971542       0.99041838       0.77000629 </v>
    <v>       0.00958162       0.37929704       0.77000629 </v>
    <v>       0.62070296       0.63028458       0.77000629 </v>
   </varray>
  </structure>
  <varray name="forces" >
   <v>       0.00000000       0.00000000       0.01124800 </v>
   <v>       0.00000000       0.00000000       0.01124800 </v>
   <v>       0.00000000       0.00000000       0.01124800 </v>
   <v>       0.00000000       0.00000000       0.01124800 </v>
   <v>       0.00000000       0.00000000       0.01124800 </v>
   <v>       0.00000000       0.00000000       0.01124800 </v>
   <v>       0.00000000       0.00000000       0.01498555 </v>
   <v>       0.00000000       0.00000000       0.01498555 </v>
   <v>       0.00000000       0.00000000       0.01498555 </v>
   <v>       0.00000000       0.00000000       0.01498555 </v>
   <v>       0.00000000       0.00000000       0.01498555 </v>
   <v>       0.00000000       0.00000000       0.01498555 </v>
   <v>       0.01623961      -0.01662987      -0.00874452 </v>
   <v>       0.00628209       0.02237885      -0.00874452 </v>
   <v>      -0.02252169      -0.00574898      -0.00874452 </v>
   <v>      -0.00628209       0.02237885      -0.00874452 </v>
   <v>      -0.01623961      -0.01662987      -0.00874452 </v>
   <v>       0.02252169      -0.00574898      -0.00874452 </v>
   <v>       0.01623961      -0.01662987      -0.00874452 </v>
   <v>       0.00628209       0.02237885      -0.00874452 </v>
   <v>      -0.02252169      -0.00574898      -0.00874452 </v>
   <v>      -0.00628209       0.02237885      -0.00874452 </v>
   <v>      -0.01623961      -0.01662987      -0.00874452 </v>
   <v>       0.02252169      -0.00574898      -0.00874452 </v>
   <v>       0.01623961      -0.01662987      -0.00874452 </v>
   <v>       0.00628209       0.02237885      -0.00874452 </v>
   <v>      -0.02252169      -0.00574898      -0.00874452 </v>
   <v>      -0.00628209       0.02237885      -0.00874452 </v>
   <v>      -0.01623961      -0.01662987      -0.00874452 </v>
   <v>       0.02252169      -0.00574898      -0.00874452 </v>
  </varray>
  <varray name="stress" >
   <v>    -161.20330763       0.00000000       0.00000000 </v>
   <v>       0.00000000    -161.20330763       0.00000000 </v>
   <v>      -0.00000000       0.00000000    -159.32382309 </v>
  </varray>
  <energy>
   <i name="e_fr_energy">   -236.72816133 </i>
   <i name="e_wo_entrp">   -236.72816133 </i>
   <i name="e_0_energy">     -0.00000000 </i>
  </energy>
  <time name="totalsc">  204.08  204.26</time>
 </calculation>
 <calculation>
  <scstep>
   <time name="dav">   42.92   42.96</time>
   <time name="total">   45.94   45.99</time>
   <energy>
    <i name="alphaZ">    899.04847540 </i>
    <i name="ewald"> -10420.83182406 </i>
    <i name="hartreedc">  -3787.66122502 </i>
    <i name="XCdc">    642.80795847 </i>
    <i name="pawpsdc">  22041.27855808 </i>
    <i name="pawaedc"> -21980.54485074 </i>
    <i name="eentropy">     -0.00000000 </i>
    <i name="bandstr">  -1698.95699661 </i>
    <i name="atom">  14068.13175480 </i>
    <i name="e_fr_energy">   -236.72814968 </i>
    <i name="e_wo_entrp">   -236.72814968 </i>
    <i name="e_0_energy">   -236.72814968 </i>
   </energy>
  </scstep>
  <scstep>
   <time name="diag">    6.84    6.84</time>
   <time name="diis">   29.62   29.65</time>
   <time name="orth">    0.93    0.93</time>
   <time name="total">   40.40   40.44</time>
   <energy>
    <i name="e_fr_energy">   -236.72831949 </i>
    <i name="e_wo_entrp">   -236.72831949 </i>
    <i name="e_0_energy">   -236.72831949 </i>
   </energy>
  </scstep>
  <scstep>
   <time name="diag">    6.84    6.84</time>
   <time name="diis">   24.63   24.65</time>
   <time name="orth">    0.93    0.93</time>
   <time name="total">   35.42   35.45</time>
   <energy>
    <i name="e_fr_energy">   -236.72826370 </i>
    <i name="e_wo_entrp">   -236.72826370 </i>
    <i name="e_0_energy">   -236.72826370 </i>
   </energy>
  </scstep>
  <scstep>
   <time name="diag">    6.84    6.84</time>
   <time name="diis">   16.41   16.42</time>
   <time name="orth">    0.93    0.93</time>
   <time name="total">   24.95   24.97</time>
   <energy>
    <i name="alphaZ">    899.04847540 </i>
    <i name="ewald"> -10420.83182406 </i>
    <i name="hartreedc">  -3787.84868183 </i>
    <i name="XCdc">    642.82240885 </i>
    <i name="pawpsdc">  22093.55300738 </i>
    <i name="pawaedc"> -22032.85324217 </i>
    <i name="eentropy">     -0.00000000 </i>
    <i name="bandstr">  -1698.75014140 </i>
    <i name="atom">  14068.13175480 </i>
    <i name="e_fr_energy">   -236.72824303 </i>
    <i name="e_wo_entrp">   -236.72824303 </i>
    <i name="e_0_energy">   -236.72824303 </i>
   </energy>
  </scstep>
  <structure>
   <crystal>
    <varray name="basis" >
     <v>       2.61149501      -4.52324203       0.00000000 </v>
     <v>       2.61149501       4.52324203       0.00000000 </v>
     <v>       0.00000000       0.00000000      14.12924181 </v>
    </varray>
    <i name="volume">    333.80118964 </i>
    <varray name="rec_basis" >
     <v>       0.19146121      -0.11054018       0.00000000 </v>
     <v>       0.19146121       0.11054018       0.00000000 </v>
     <v>       0.00000000       0.00000000       0.07077521 </v>
    </varray>
   </crystal>
   <varray name="positions" >
    <v>       0.66666667       0.33333333       0.05055060 </v>
    <v>       0.00000000       0.00000000       0.21721727 </v>
    <v>       0.33333333       0.66666667       0.38388394 </v>
    <v>       0.66666667       0.33333333       0.55055060 </v>
    <v>       0.00000000       0.00000000       0.71721727 </v>
    <v>       0.33333333       0.66666667       0.88388394 </v>
    <v>       0.66666667       0.33333333       0.33248841 </v>
    <v>       0.33333333       0.66666667       0.16582174 </v>
    <v>       0.33333333       0.66666667       0.66582174 </v>
    <v>       0.00000000       0.00000000       0.49915508 </v>
    <v>       0.00000000       0.00000000       0.99915508 </v>
    <v>       0.66666667       0.33333333       0.83248841 </v>
    <v>       0.62086749       0.99059849       0.27000922 </v>
    <v>       0.00940151       0.63026900       0.27000922 </v>
    <v>       0.36973100       0.37913251       0.27000922 </v>
    <v>       0.03639766       0.32393182       0.10334255 </v>
    <v>       0.67606818       0.71246584       0.10334255 </v>
    <v>       0.28753416       0.96360234       0.10334255 </v>
    <v>       0.28753416       0.32393182       0.60334255 </v>
    <v>       0.67606818       0.96360234       0.60334255 </v>
    <v>       0.03639766       0.71246584       0.60334255 </v>
    <v>       0.70306433       0.65726515       0.43667588 </v>
    <v>       0.34273485       0.04579918       0.43667588 </v>
    <v>       0.95420082       0.29693567       0.43667588 </v>
    <v>       0.95420082       0.65726515       0.93667588 </v>
    <v>       0.34273485       0.29693567       0.93667588 </v>
    <v>       0.70306433       0.04579918       0.93667588 </v>
    <v>       0.36973100       0.99059849       0.77000922 </v>
    <v>       0.00940151       0.37913251       0.77000922 </v>
    <v>       0.62086749       0.63026900       0.77000922 </v>
   </varray>
  </structure>
  <varray name="forces" >
   <v>      -0.00000000       0.00000000       0.01208077 </v>
   <v>      -0.00000000       0.00000000       0.01208077 </v>
   <v>      -0.00000000       0.00000000       0.01208077 </v>
   <v>      -0.00000000       0.00000000       0.01208077 </v>
   <v>      -0.00000000       0.00000000       0.01208077 </v>
   <v>      -0.00000000       0.00000000       0.01208077 </v>
   <v>      -0.00000000      -0.00000000       0.02355460 </v>
   <v>      -0.00000000       0.00000000       0.02355460 </v>
   <v>      -0.00000000      -0.00000000       0.02355460 </v>
   <v>      -0.00000000      -0.00000000       0.02355460 </v>
   <v>      -0.00000000      -0.00000000       0.02355460 </v>
   <v>      -0.00000000      -0.00000000       0.02355460 </v>
   <v>      -0.00325556      -0.02738509      -0.01187846 </v>
   <v>       0.02534396       0.01087315      -0.01187846 </v>
   <v>      -0.02208840       0.01651194      -0.01187846 </v>
   <v>      -0.02534396       0.01087315      -0.01187846 </v>
   <v>       0.00325556      -0.02738509      -0.01187846 </v>
   <v>       0.02208840       0.01651194      -0.01187846 </v>
   <v>      -0.00325556      -0.02738509      -0.01187846 </v>
   <v>       0.02534396       0.01087315      -0.01187846 </v>
   <v>      -0.02208840       0.01651194      -0.01187846 </v>
   <v>      -0.02534396       0.01087315      -0.01187846 </v>
   <v>       0.00325556      -0.02738509      -0.01187846 </v>
   <v>       0.02208840       0.01651194      -0.01187846 </v>
   <v>      -0.00325556      -0.02738509      -0.01187846 </v>
   <v>       0.02534396       0.01087315      -0.01187846 </v>
   <v>      -0.02208840       0.01651194      -0.01187846 </v>
   <v>      -0.02534396       0.01087315      -0.01187846 </v>
   <v>       0.00325556      -0.02738509      -0.01187846 </v>
   <v>       0.02208840       0.01651194      -0.01187846 </v>
  </varray>
  <varray name="stress" >
   <v>    -161.36442437       0.00000000       0.00000000 </v>
   <v>       0.00000000    -161.36442437       0.00000000 </v>
   <v>       0.00000000       0.00000000    -160.04120124 </v>
  </varray>
  <energy>
   <i name="e_fr_energy">   -236.72824303 </i>
   <i name="e_wo_entrp">   -236.72824303 </i>
   <i name="e_0_energy">     -0.00000000 </i>
  </energy>
  <time name="totalsc">  199.93  200.09</time>
 </calculation>
 <calculation>
  <scstep>
   <time name="dav">   40.72   40.75</time>
   <time name="total">   43.74   43.78</time>
   <energy>
    <i name="alphaZ">    899.04847540 </i>
    <i name="ewald"> -10420.88498730 </i>
    <i name="hartreedc">  -3787.80197669 </i>
    <i name="XCdc">    642.81726903 </i>
    <i name="pawpsdc">  22094.34093041 </i>
    <i name="pawaedc"> -22033.64117974 </i>
    <i name="eentropy">     -0.00000000 </i>
    <i name="bandstr">  -1698.73848747 </i>
    <i name="atom">  14068.13175480 </i>
    <i name="e_fr_energy">   -236.72820156 </i>
    <i name="e_wo_entrp">   -236.72820156 </i>
    <i name="e_0_energy">   -236.72820156 </i>
   </energy>
  </scstep>
  <scstep>
   <time name="diag">    6.83    6.84</time>
   <time name="diis">   18.62   18.64</time>
   <time name="orth">    0.93    0.93</time>
   <time name="total">   29.40   29.43</time>
   <energy>
    <i name="e_fr_energy">   -236.72821855 </i>
    <i name="e_wo_entrp">   -236.72821855 </i>
    <i name="e_0_energy">   -236.72821855 </i>
   </energy>
  </scstep>
  <scstep>
   <time name="diag">    6.83    6.84</time>
   <time name="diis">   15.31   15.33</time>
   <time name="orth">    0.93    0.93</time>
   <time name="total">   26.10   26.12</time>
   <energy>
    <i name="e_fr_energy">   -236.72822549 </i>
    <i name="e_wo_entrp">   -236.72822549 </i>
    <i name="e_0_energy">   -236.72822549 </i>
   </energy>
  </scstep>
  <scstep>
   <time name="diag">    6.84    6.84</time>
   <time name="diis">   15.19   15.21</time>
   <time name="orth">    0.93    0.93</time>
   <time name="total">   23.74   23.76</time>
   <energy>
    <i name="alphaZ">    899.04847540 </i>
    <i name="ewald"> -10420.88498730 </i>
    <i name="hartreedc">  -3787.71419421 </i>
    <i name="XCdc">    642.81344615 </i>
    <i name="pawpsdc">  22091.70446854 </i>
    <i name="pawaedc"> -22031.00398715 </i>
    <i name="eentropy">     -0.00000000 </i>
    <i name="bandstr">  -1698.82320262 </i>
    <i name="atom">  14068.13175480 </i>
    <i name="e_fr_energy">   -236.72822639 </i>
    <i name="e_wo_entrp">   -236.72822639 </i>
    <i name="e_0_energy">   -236.72822639 </i>
   </energy>
  </scstep>
  <structure>
   <crystal>
    <varray name="basis" >
     <v>       2.61149501      -4.52324203       0.00000000 </v>
     <v>       2.61149501       4.52324203       0.00000000 </v>
     <v>       0.00000000       0.00000000      14.12924181 </v>
    </varray>
    <i name="volume">    333.80118964 </i>
    <varray name="rec_basis" >
     <v>       0.19146121      -0.11054018       0.00000000 </v>
     <v>       0.19146121       0.11054018       0.00000000 </v>
     <v>       0.00000000       0.00000000       0.07077521 </v>
    </varray>
   </crystal>
   <varray name="positions" >
    <v>       0.66666667       0.33333333       0.05054458 </v>
    <v>       0.00000000       0.00000000       0.21721124 </v>
    <v>       0.33333333       0.66666667       0.38387791 </v>
    <v>       0.66666667       0.33333333       0.55054458 </v>
    <v>       0.00000000       0.00000000       0.71721124 </v>
    <v>       0.33333333       0.66666667       0.88387791 </v>
    <v>       0.66666667       0.33333333       0.33249770 </v>
    <v>       0.33333333       0.66666667       0.16583103 </v>
    <v>       0.33333333       0.66666667       0.66583103 </v>
    <v>       0.00000000       0.00000000       0.49916436 </v>
    <v>       0.00000000       0.00000000       0.99916436 </v>
    <v>       0.66666667       0.33333333       0.83249770 </v>
    <v>       0.62080636       0.99053156       0.27000813 </v>
    <v>       0.00946844       0.63027479       0.27000813 </v>
    <v>       0.36972521       0.37919364       0.27000813 </v>
    <v>       0.03639187       0.32386490       0.10334146 </v>
    <v>       0.67613510       0.71252698       0.10334146 </v>
    <v>       0.28747302       0.96360813       0.10334146 </v>
    <v>       0.28747302       0.32386490       0.60334146 </v>
    <v>       0.67613510       0.96360813       0.60334146 </v>
    <v>       0.03639187       0.71252698       0.60334146 </v>
    <v>       0.70305854       0.65719823       0.43667480 </v>
    <v>       0.34280177       0.04586031       0.43667480 </v>
    <v>       0.95413969       0.29694146       0.43667480 </v>
    <v>       0.95413969       0.65719823       0.93667480 </v>
    <v>       0.34280177       0.29694146       0.93667480 </v>
    <v>       0.70305854       0.04586031       0.93667480 </v>
    <v>       0.36972521       0.99053156       0.77000813 </v>
    <v>       0.00946844       0.37919364       0.77000813 </v>
    <v>       0.62080636       0.63027479       0.77000813 </v>
   </varray>
  </structure>
  <varray name="forces" >
   <v>      -0.00000000      -0.00000000       0.01268428 </v>
   <v>      -0.00000000      -0.00000000       0.01268428 </v>
   <v>      -0.00000000      -0.00000000       0.01268428 </v>
   <v>      -0.00000000      -0.00000000       0.01268428 </v>
   <v>      -0.00000000      -0.00000000       0.01268428 </v>
   <v>      -0.00000000      -0.00000000       0.01268428 </v>
   <v>      -0.00000000      -0.00000000       0.01667713 </v>
   <v>      -0.00000000      -0.00000000       0.01667713 </v>
   <v>      -0.00000000      -0.00000000       0.01667713 </v>
   <v>      -0.00000000      -0.00000000       0.01667713 </v>
   <v>      -0.00000000      -0.00000000       0.01667713 </v>
   <v>      -0.00000000      -0.00000000       0.01667713 </v>
   <v>       0.00775774      -0.02412443      -0.00978714 </v>
   <v>       0.01701350       0.01878061      -0.00978714 </v>
   <v>      -0.02477124       0.00534382      -0.00978714 </v>
   <v>      -0.01701350       0.01878061      -0.00978714 </v>
   <v>      -0.00775774      -0.02412443      -0.00978714 </v>
   <v>       0.02477124       0.00534382      -0.00978714 </v>
   <v>       0.00775774      -0.02412443      -0.00978714 </v>
   <v>       0.01701350       0.01878061      -0.00978714 </v>
   <v>      -0.02477124       0.00534382      -0.00978714 </v>
   <v>      -0.01701350       0.01878061      -0.00978714 </v>
   <v>      -0.00775774      -0.02412443      -0.00978714 </v>
   <v>       0.02477124       0.00534382      -0.00978714 </v>
   <v>       0.00775774      -0.02412443      -0.00978714 </v>
   <v>       0.01701350       0.01878061      -0.00978714 </v>
   <v>      -0.02477124       0.00534382      -0.00978714 </v>
   <v>      -0.01701350       0.01878061      -0.00978714 </v>
   <v>      -0.00775774      -0.02412443      -0.00978714 </v>
   <v>       0.02477124       0.00534382      -0.00978714 </v>
  </varray>
  <varray name="stress" >
   <v>    -161.28176287       0.00000000      -0.00000000 </v>
   <v>       0.00000000    -161.28176287      -0.00000000 </v>
   <v>       0.00000000      -0.00000000    -159.80845055 </v>
  </varray>
  <energy>
   <i name="e_fr_energy">   -236.72822639 </i>
   <i name="e_wo_entrp">   -236.72822639 </i>
   <i name="e_0_energy">     -0.00000000 </i>
  </energy>
  <time name="totalsc">  176.19  176.33</time>
 </calculation>
 <calculation>
  <scstep>
   <time name="dav">   39.43   39.47</time>
   <time name="total">   42.45   42.49</time>
   <energy>
    <i name="alphaZ">    899.04847540 </i>
    <i name="ewald"> -10423.62358844 </i>
    <i name="hartreedc">  -3785.32995197 </i>
    <i name="XCdc">    642.78835217 </i>
    <i name="pawpsdc">  22090.20824249 </i>
    <i name="pawaedc"> -22029.50692572 </i>
    <i name="eentropy">     -0.00000000 </i>
    <i name="bandstr">  -1698.44440507 </i>
    <i name="atom">  14068.13175480 </i>
    <i name="e_fr_energy">   -236.72804634 </i>
    <i name="e_wo_entrp">   -236.72804634 </i>
    <i name="e_0_energy">   -236.72804634 </i>
   </energy>
  </scstep>
  <scstep>
   <time name="diag">    6.84    6.84</time>
   <time name="diis">   28.49   28.52</time>
   <time name="orth">    0.93    0.93</time>
   <time name="total">   39.28   39.32</time>
   <energy>
    <i name="e_fr_energy">   -236.72886471 </i>
    <i name="e_wo_entrp">   -236.72886471 </i>
    <i name="e_0_energy">   -236.72886471 </i>
   </energy>
  </scstep>
  <scstep>
   <time name="diag">    6.84    6.84</time>
   <time name="diis">   23.38   23.40</time>
   <time name="orth">    0.93    0.93</time>
   <time name="total">   34.16   34.19</time>
   <energy>
    <i name="e_fr_energy">   -236.72895172 </i>
    <i name="e_wo_entrp">   -236.72895172 </i>
    <i name="e_0_energy">   -236.72895172 </i>
   </energy>
  </scstep>
  <scstep>
   <time name="diag">    6.84    6.84</time>
   <time name="diis">   18.50   18.52</time>
   <time name="orth">    0.93    0.93</time>
   <time name="total">   27.04   27.07</time>
   <energy>
    <i name="alphaZ">    899.04847540 </i>
    <i name="ewald"> -10423.62358844 </i>
    <i name="hartreedc">  -3784.99469889 </i>
    <i name="XCdc">    642.77857858 </i>
    <i name="pawpsdc">  22081.19581160 </i>
    <i name="pawaedc"> -22020.48100029 </i>
    <i name="eentropy">     -0.00000000 </i>
    <i name="bandstr">  -1698.78426515 </i>
    <i name="atom">  14068.13175480 </i>
    <i name="e_fr_energy">   -236.72893237 </i>
    <i name="e_wo_entrp">   -236.72893237 </i>
    <i name="e_0_energy">   -236.72893237 </i>
   </energy>
  </scstep>
  <structure>
   <crystal>
    <varray name="basis" >
     <v>       2.61149501      -4.52324203       0.00000000 </v>
     <v>       2.61149501       4.52324203       0.00000000 </v>
     <v>       0.00000000       0.00000000      14.12924181 </v>
    </varray>
    <i name="volume">    333.80118964 </i>
    <varray name="rec_basis" >
     <v>       0.19146121      -0.11054018       0.00000000 </v>
     <v>       0.19146121       0.11054018       0.00000000 </v>
     <v>       0.00000000       0.00000000       0.07077521 </v>
    </varray>
   </crystal>
   <varray name="positions" >
    <v>       0.66666667       0.33333333       0.05060673 </v>
    <v>       0.00000000       0.00000000       0.21727340 </v>
    <v>       0.33333333       0.66666667       0.38394006 </v>
    <v>       0.66666667       0.33333333       0.55060673 </v>
    <v>       0.00000000       0.00000000       0.71727340 </v>
    <v>       0.33333333       0.66666667       0.88394006 </v>
    <v>       0.66666667       0.33333333       0.33253323 </v>
    <v>       0.33333333       0.66666667       0.16586656 </v>
    <v>       0.33333333       0.66666667       0.66586656 </v>
    <v>       0.00000000       0.00000000       0.49919990 </v>
    <v>       0.00000000       0.00000000       0.99919990 </v>
    <v>       0.66666667       0.33333333       0.83253323 </v>
    <v>       0.62118307       0.99065065       0.26997557 </v>
    <v>       0.00934935       0.63053242       0.26997557 </v>
    <v>       0.36946758       0.37881693       0.26997557 </v>
    <v>       0.03613424       0.32398398       0.10330890 </v>
    <v>       0.67601602       0.71215026       0.10330890 </v>
    <v>       0.28784974       0.96386576       0.10330890 </v>
    <v>       0.28784974       0.32398398       0.60330890 </v>
    <v>       0.67601602       0.96386576       0.60330890 </v>
    <v>       0.03613424       0.71215026       0.60330890 </v>
    <v>       0.70280091       0.65731732       0.43664224 </v>
    <v>       0.34268268       0.04548359       0.43664224 </v>
    <v>       0.95451641       0.29719909       0.43664224 </v>
    <v>       0.95451641       0.65731732       0.93664224 </v>
    <v>       0.34268268       0.29719909       0.93664224 </v>
    <v>       0.70280091       0.04548359       0.93664224 </v>
    <v>       0.36946758       0.99065065       0.76997557 </v>
    <v>       0.00934935       0.37881693       0.76997557 </v>
    <v>       0.62118307       0.63053242       0.76997557 </v>
   </varray>
  </structure>
  <varray name="forces" >
   <v>      -0.00000000       0.00000000       0.01428030 </v>
   <v>      -0.00000000       0.00000000       0.01428030 </v>
   <v>      -0.00000000       0.00000000       0.01428030 </v>
   <v>      -0.00000000       0.00000000       0.01428030 </v>
   <v>      -0.00000000       0.00000000       0.01428030 </v>
   <v>      -0.00000000       0.00000000       0.01428030 </v>
   <v>      -0.00000000       0.00000000       0.00300214 </v>
   <v>      -0.00000000       0.00000000       0.00300214 </v>
   <v>      -0.00000000       0.00000000       0.00300214 </v>
   <v>      -0.00000000       0.00000000       0.00300214 </v>
   <v>      -0.00000000       0.00000000       0.00300214 </v>
   <v>      -0.00000000       0.00000000       0.00300214 </v>
   <v>       0.00856080      -0.01496133      -0.00576081 </v>
   <v>       0.00867649       0.01489454      -0.00576081 </v>
   <v>      -0.01723729       0.00006679      -0.00576081 </v>
   <v>      -0.00867649       0.01489454      -0.00576081 </v>
   <v>      -0.00856080      -0.01496133      -0.00576081 </v>
   <v>       0.01723729       0.00006679      -0.00576081 </v>
   <v>       0.00856080      -0.01496133      -0.00576081 </v>
   <v>       0.00867649       0.01489454      -0.00576081 </v>
   <v>      -0.01723729       0.00006679      -0.00576081 </v>
   <v>      -0.00867649       0.01489454      -0.00576081 </v>
   <v>      -0.00856080      -0.01496133      -0.00576081 </v>
   <v>       0.01723729       0.00006679      -0.00576081 </v>
   <v>       0.00856080      -0.01496133      -0.00576081 </v>
   <v>       0.00867649       0.01489454      -0.00576081 </v>
   <v>      -0.01723729       0.00006679      -0.00576081 </v>
   <v>      -0.00867649       0.01489454      -0.00576081 </v>
   <v>      -0.00856080      -0.01496133      -0.00576081 </v>
   <v>       0.01723729       0.00006679      -0.00576081 </v>
  </varray>
  <varray name="stress" >
   <v>    -162.82661379       0.00000000       0.00000000 </v>
   <v>       0.00000000    -162.82661379       0.00000000 </v>
   <v>       0.00000000      -0.00000000    -160.76400564 </v>
  </varray>
  <energy>
   <i name="e_fr_energy">   -236.72893237 </i>
   <i name="e_wo_entrp">   -236.72893237 </i>
   <i name="e_0_energy">     -0.00000000 </i>
  </energy>
  <time name="totalsc">  196.14  196.31</time>
 </calculation>
 <calculation>
  <scstep>
   <time name="dav">   39.16   39.20</time>
   <time name="total">   42.18   42.22</time>
   <energy>
    <i name="alphaZ">    899.04847540 </i>
    <i name="ewald"> -10431.01035417 </i>
    <i name="hartreedc">  -3778.43339365 </i>
    <i name="XCdc">    642.70642491 </i>
    <i name="pawpsdc">  22068.03168289 </i>
    <i name="pawaedc"> -22007.29814096 </i>
    <i name="eentropy">      0.00590782 </i>
    <i name="bandstr">  -1697.90559341 </i>
    <i name="atom">  14068.13175480 </i>
    <i name="e_fr_energy">   -236.72323638 </i>
    <i name="e_wo_entrp">   -236.72914420 </i>
    <i name="e_0_energy">   -236.72471334 </i>
   </energy>
  </scstep>
  <scstep>
   <time name="diag">    6.84    6.84</time>
   <time name="diis">   28.66   28.68</time>
   <time name="orth">    0.93    0.93</time>
   <time name="total">   39.44   39.48</time>
   <energy>
    <i name="e_fr_energy">   -236.72910722 </i>
    <i name="e_wo_entrp">   -236.73512066 </i>
    <i name="e_0_energy">   -236.73061058 </i>
   </energy>
  </scstep>
  <scstep>
   <time name="diag">    6.84    6.84</time>
   <time name="diis">   30.39   30.42</time>
   <time name="orth">    0.93    0.93</time>
   <time name="total">   41.18   41.22</time>
   <energy>
    <i name="e_fr_energy">   -236.72999044 </i>
    <i name="e_wo_entrp">   -236.73605748 </i>
    <i name="e_0_energy">   -236.73150720 </i>
   </energy>
  </scstep>
  <scstep>
   <time name="diag">    6.84    6.84</time>
   <time name="diis">   23.92   23.95</time>
   <time name="orth">    0.93    0.93</time>
   <time name="total">   34.72   34.75</time>
   <energy>
    <i name="e_fr_energy">   -236.72965322 </i>
    <i name="e_wo_entrp">   -236.73579054 </i>
    <i name="e_0_energy">   -236.73118755 </i>
   </energy>
  </scstep>
  <scstep>
   <time name="diag">    6.84    6.84</time>
   <time name="diis">   24.22   24.24</time>
   <time name="orth">    0.93    0.93</time>
   <time name="total">   32.77   32.80</time>
   <energy>
    <i name="alphaZ">    899.04847540 </i>
    <i name="ewald"> -10431.01035417 </i>
    <i name="hartreedc">  -3777.24440563 </i>
    <i name="XCdc">    642.66907874 </i>
    <i name="pawpsdc">  22007.06337901 </i>
    <i name="pawaedc"> -21946.25500390 </i>
    <i name="eentropy">      0.00630902 </i>
    <i name="bandstr">  -1699.13887156 </i>
    <i name="atom">  14068.13175480 </i>
    <i name="e_fr_energy">   -236.72963828 </i>
    <i name="e_wo_entrp">   -236.73594730 </i>
    <i name="e_0_energy">   -236.73121553 </i>
   </energy>
  </scstep>
  <structure>
   <crystal>
    <varray name="basis" >
     <v>       2.61149501      -4.52324203       0.00000000 </v>
     <v>       2.61149501       4.52324203       0.00000000 </v>
     <v>       0.00000000       0.00000000      14.12924181 </v>
    </varray>
    <i name="volume">    333.80118964 </i>
    <varray name="rec_basis" >
     <v>       0.19146121      -0.11054018       0.00000000 </v>
     <v>       0.19146121       0.11054018       0.00000000 </v>
     <v>       0.00000000       0.00000000       0.07077521 </v>
    </varray>
   </crystal>
   <varray name="positions" >
    <v>       0.66666667       0.33333333       0.05077412 </v>
    <v>       0.00000000       0.00000000       0.21744079 </v>
    <v>       0.33333333       0.66666667       0.38410745 </v>
    <v>       0.66666667       0.33333333       0.55077412 </v>
    <v>       0.00000000       0.00000000       0.71744079 </v>
    <v>       0.33333333       0.66666667       0.88410745 </v>
    <v>       0.66666667       0.33333333       0.33262893 </v>
    <v>       0.33333333       0.66666667       0.16596226 </v>
    <v>       0.33333333       0.66666667       0.66596226 </v>
    <v>       0.00000000       0.00000000       0.49929560 </v>
    <v>       0.00000000       0.00000000       0.99929560 </v>
    <v>       0.66666667       0.33333333       0.83262893 </v>
    <v>       0.62219767       0.99097138       0.26988787 </v>
    <v>       0.00902862       0.63122629       0.26988787 </v>
    <v>       0.36877371       0.37780233       0.26988787 </v>
    <v>       0.03544038       0.32430471       0.10322121 </v>
    <v>       0.67569529       0.71113567       0.10322121 </v>
    <v>       0.28886433       0.96455962       0.10322121 </v>
    <v>       0.28886433       0.32430471       0.60322121 </v>
    <v>       0.67569529       0.96455962       0.60322121 </v>
    <v>       0.03544038       0.71113567       0.60322121 </v>
    <v>       0.70210704       0.65763804       0.43655454 </v>
    <v>       0.34236196       0.04446900       0.43655454 </v>
    <v>       0.95553100       0.29789296       0.43655454 </v>
    <v>       0.95553100       0.65763804       0.93655454 </v>
    <v>       0.34236196       0.29789296       0.93655454 </v>
    <v>       0.70210704       0.04446900       0.93655454 </v>
    <v>       0.36877371       0.99097138       0.76988787 </v>
    <v>       0.00902862       0.37780233       0.76988787 </v>
    <v>       0.62219767       0.63122629       0.76988787 </v>
   </varray>
  </structure>
  <varray name="forces" >
   <v>      -0.00000000      -0.00000000       0.01532672 </v>
   <v>      -0.00000000      -0.00000000       0.01532672 </v>
   <v>      -0.00000000      -0.00000000       0.01532672 </v>
   <v>      -0.00000000      -0.00000000       0.01532672 </v>
   <v>      -0.00000000      -0.00000000       0.01532672 </v>
   <v>      -0.00000000      -0.00000000       0.01532672 </v>
   <v>      -0.00000000      -0.00000000      -0.03897823 </v>
   <v>      -0.00000000      -0.00000000      -0.03897823 </v>
   <v>      -0.00000000      -0.00000000      -0.03897823 </v>
   <v>      -0.00000000      -0.00000000      -0.03897823 </v>
   <v>      -0.00000000      -0.00000000      -0.03897823 </v>
   <v>      -0.00000000      -0.00000000      -0.03897823 </v>
   <v>      -0.00083678       0.01451106       0.00788384 </v>
   <v>      -0.01214856      -0.00798020       0.00788384 </v>
   <v>       0.01298534      -0.00653086       0.00788384 </v>
   <v>       0.01214856      -0.00798020       0.00788384 </v>
   <v>       0.00083678       0.01451106       0.00788384 </v>
   <v>      -0.01298534      -0.00653086       0.00788384 </v>
   <v>      -0.00083678       0.01451106       0.00788384 </v>
   <v>      -0.01214856      -0.00798020       0.00788384 </v>
   <v>       0.01298534      -0.00653086       0.00788384 </v>
   <v>       0.01214856      -0.00798020       0.00788384 </v>
   <v>       0.00083678       0.01451106       0.00788384 </v>
   <v>      -0.01298534      -0.00653086       0.00788384 </v>
   <v>      -0.00083678       0.01451106       0.00788384 </v>
   <v>      -0.01214856      -0.00798020       0.00788384 </v>
   <v>       0.01298534      -0.00653086       0.00788384 </v>
   <v>       0.01214856      -0.00798020       0.00788384 </v>
   <v>       0.00083678       0.01451106       0.00788384 </v>
   <v>      -0.01298534      -0.00653086       0.00788384 </v>
  </varray>
  <varray name="stress" >
   <v>    -166.13779354       0.00000000       0.00000000 </v>
   <v>       0.00000000    -166.13779354       0.00000000 </v>
   <v>       0.00000000       0.00000000    -162.39333381 </v>
  </varray>
  <energy>
   <i name="e_fr_energy">   -236.72963828 </i>
   <i name="e_wo_entrp">   -236.73121553 </i>
   <i name="e_0_energy">      0.00630902 </i>
  </energy>
  <time name="totalsc">  243.50  243.71</time>
 </calculation>
 <calculation>
  <scstep>
   <time name="dav">   39.34   39.38</time>
   <time name="total">   42.36   42.40</time>
   <energy>
    <i name="alphaZ">    899.04847540 </i>
    <i name="ewald"> -10428.07192360 </i>
    <i name="hartreedc">  -3779.75735723 </i>
    <i name="XCdc">    642.69310414 </i>
    <i name="pawpsdc">  22000.98850206 </i>
    <i name="pawaedc"> -21940.17474167 </i>
    <i name="eentropy">     -0.00000000 </i>
    <i name="bandstr">  -1699.58614489 </i>
    <i name="atom">  14068.13175480 </i>
    <i name="e_fr_energy">   -236.72833098 </i>
    <i name="e_wo_entrp">   -236.72833098 </i>
    <i name="e_0_energy">   -236.72833098 </i>
   </energy>
  </scstep>
  <scstep>
   <time name="diag">    6.84    6.84</time>
   <time name="diis">   28.14   28.17</time>
   <time name="orth">    0.93    0.93</time>
   <time name="total">   38.92   38.96</time>
   <energy>
    <i name="e_fr_energy">   -236.72919011 </i>
    <i name="e_wo_entrp">   -236.72919011 </i>
    <i name="e_0_energy">   -236.72919011 </i>
   </energy>
  </scstep>
  <scstep>
   <time name="diag">    6.83    6.84</time>
   <time name="diis">   23.57   23.59</time>
   <time name="orth">    0.93    0.93</time>
   <time name="total">   34.35   34.38</time>
   <energy>
    <i name="e_fr_energy">   -236.72927550 </i>
    <i name="e_wo_entrp">   -236.72927550 </i>
    <i name="e_0_energy">   -236.72927550 </i>
   </energy>
  </scstep>
  <scstep>
   <time name="diag">    6.83    6.84</time>
   <time name="diis">   18.08   18.09</time>
   <time name="orth">    0.93    0.93</time>
   <time name="total">   26.62   26.64</time>
   <energy>
    <i name="alphaZ">    899.04847540 </i>
    <i name="ewald"> -10428.07192360 </i>
    <i name="hartreedc">  -3780.20311484 </i>
    <i name="XCdc">    642.70496086 </i>
    <i name="pawpsdc">  22008.96933863 </i>
    <i name="pawaedc"> -21948.16422327 </i>
    <i name="eentropy">     -0.00000000 </i>
    <i name="bandstr">  -1699.14450753 </i>
    <i name="atom">  14068.13175480 </i>
    <i name="e_fr_energy">   -236.72923956 </i>
    <i name="e_wo_entrp">   -236.72923956 </i>
    <i name="e_0_energy">   -236.72923956 </i>
   </energy>
  </scstep>
  <structure>
   <crystal>
    <varray name="basis" >
     <v>       2.61149501      -4.52324203       0.00000000 </v>
     <v>       2.61149501       4.52324203       0.00000000 </v>
     <v>       0.00000000       0.00000000      14.12924181 </v>
    </varray>
    <i name="volume">    333.80118964 </i>
    <varray name="rec_basis" >
     <v>       0.19146121      -0.11054018       0.00000000 </v>
     <v>       0.19146121       0.11054018       0.00000000 </v>
     <v>       0.00000000       0.00000000       0.07077521 </v>
    </varray>
   </crystal>
   <varray name="positions" >
    <v>       0.66666667       0.33333333       0.05070758 </v>
    <v>       0.00000000       0.00000000       0.21737424 </v>
    <v>       0.33333333       0.66666667       0.38404091 </v>
    <v>       0.66666667       0.33333333       0.55070758 </v>
    <v>       0.00000000       0.00000000       0.71737424 </v>
    <v>       0.33333333       0.66666667       0.88404091 </v>
    <v>       0.66666667       0.33333333       0.33259089 </v>
    <v>       0.33333333       0.66666667       0.16592422 </v>
    <v>       0.33333333       0.66666667       0.66592422 </v>
    <v>       0.00000000       0.00000000       0.49925755 </v>
    <v>       0.00000000       0.00000000       0.99925755 </v>
    <v>       0.66666667       0.33333333       0.83259089 </v>
    <v>       0.62179433       0.99084387       0.26992273 </v>
    <v>       0.00915613       0.63095045       0.26992273 </v>
    <v>       0.36904955       0.37820567       0.26992273 </v>
    <v>       0.03571622       0.32417721       0.10325607 </v>
    <v>       0.67582279       0.71153901       0.10325607 </v>
    <v>       0.28846099       0.96428378       0.10325607 </v>
    <v>       0.28846099       0.32417721       0.60325607 </v>
    <v>       0.67582279       0.96428378       0.60325607 </v>
    <v>       0.03571622       0.71153901       0.60325607 </v>
    <v>       0.70238288       0.65751054       0.43658940 </v>
    <v>       0.34248946       0.04487234       0.43658940 </v>
    <v>       0.95512766       0.29761712       0.43658940 </v>
    <v>       0.95512766       0.65751054       0.93658940 </v>
    <v>       0.34248946       0.29761712       0.93658940 </v>
    <v>       0.70238288       0.04487234       0.93658940 </v>
    <v>       0.36904955       0.99084387       0.76992273 </v>
    <v>       0.00915613       0.37820567       0.76992273 </v>
    <v>       0.62179433       0.63095045       0.76992273 </v>
   </varray>
  </structure>
  <varray name="forces" >
   <v>       0.00000000       0.00000000       0.01227205 </v>
   <v>       0.00000000       0.00000000       0.01227205 </v>
   <v>       0.00000000       0.00000000       0.01227205 </v>
   <v>       0.00000000       0.00000000       0.01227205 </v>
   <v>       0.00000000       0.00000000       0.01227205 </v>
   <v>       0.00000000       0.00000000       0.01227205 </v>
   <v>       0.00000000       0.00000000      -0.01699978 </v>
   <v>       0.00000000       0.00000000      -0.01699978 </v>
   <v>       0.00000000       0.00000000      -0.01699978 </v>
   <v>       0.00000000       0.00000000      -0.01699978 </v>
   <v>       0.00000000       0.00000000      -0.01699978 </v>
   <v>       0.00000000       0.00000000      -0.01699978 </v>
   <v>      -0.00437719       0.00894495       0.00157591 </v>
   <v>      -0.00555796      -0.00826323       0.00157591 </v>
   <v>       0.00993515      -0.00068172       0.00157591 </v>
   <v>       0.00555796      -0.00826323       0.00157591 </v>
   <v>       0.00437719       0.00894495       0.00157591 </v>
   <v>      -0.00993515      -0.00068172       0.00157591 </v>
   <v>      -0.00437719       0.00894495       0.00157591 </v>
   <v>      -0.00555796      -0.00826323       0.00157591 </v>
   <v>       0.00993515      -0.00068172       0.00157591 </v>
   <v>       0.00555796      -0.00826323       0.00157591 </v>
   <v>       0.00437719       0.00894495       0.00157591 </v>
   <v>      -0.00993515      -0.00068172       0.00157591 </v>
   <v>      -0.00437719       0.00894495       0.00157591 </v>
   <v>      -0.00555796      -0.00826323       0.00157591 </v>
   <v>       0.00993515      -0.00068172       0.00157591 </v>
   <v>       0.00555796      -0.00826323       0.00157591 </v>
   <v>       0.00437719       0.00894495       0.00157591 </v>
   <v>      -0.00993515      -0.00068172       0.00157591 </v>
  </varray>
  <varray name="stress" >
   <v>    -163.79855962      -0.00000000       0.00000000 </v>
   <v>       0.00000000    -163.79855962       0.00000000 </v>
   <v>      -0.00000000       0.00000000    -160.80502089 </v>
  </varray>
  <energy>
   <i name="e_fr_energy">   -236.72923956 </i>
   <i name="e_wo_entrp">   -236.72923956 </i>
   <i name="e_0_energy">     -0.00000000 </i>
  </energy>
  <time name="totalsc">  195.46  195.62</time>
 </calculation>
 <calculation>
  <scstep>
   <time name="dav">   39.51   39.55</time>
   <time name="total">   42.53   42.57</time>
   <energy>
    <i name="alphaZ">    899.04847540 </i>
    <i name="ewald"> -10425.84702602 </i>
    <i name="hartreedc">  -3782.46701104 </i>
    <i name="XCdc">    642.74034961 </i>
    <i name="pawpsdc">  22021.18498109 </i>
    <i name="pawaedc"> -21960.39981313 </i>
    <i name="eentropy">     -0.00000000 </i>
    <i name="bandstr">  -1699.12035432 </i>
    <i name="atom">  14068.13175480 </i>
    <i name="e_fr_energy">   -236.72864360 </i>
    <i name="e_wo_entrp">   -236.72864360 </i>
    <i name="e_0_energy">   -236.72864360 </i>
   </energy>
  </scstep>
  <scstep>
   <time name="diag">    6.84    6.84</time>
   <time name="diis">   28.29   28.32</time>
   <time name="orth">    0.93    0.93</time>
   <time name="total">   39.07   39.11</time>
   <energy>
    <i name="e_fr_energy">   -236.72912285 </i>
    <i name="e_wo_entrp">   -236.72912285 </i>
    <i name="e_0_energy">   -236.72912285 </i>
   </energy>
  </scstep>
  <scstep>
   <time name="diag">    6.83    6.84</time>
   <time name="diis">   22.86   22.88</time>
   <time name="orth">    0.93    0.93</time>
   <time name="total">   33.64   33.67</time>
   <energy>
    <i name="e_fr_energy">   -236.72919001 </i>
    <i name="e_wo_entrp">   -236.72919001 </i>
    <i name="e_0_energy">   -236.72919001 </i>
   </energy>
  </scstep>
  <scstep>
   <time name="diag">    6.84    6.84</time>
   <time name="diis">   17.31   17.33</time>
   <time name="orth">    0.93    0.93</time>
   <time name="total">   25.86   25.88</time>
   <energy>
    <i name="alphaZ">    899.04847540 </i>
    <i name="ewald"> -10425.84702602 </i>
    <i name="hartreedc">  -3782.61980278 </i>
    <i name="XCdc">    642.74188518 </i>
    <i name="pawpsdc">  22028.87800218 </i>
    <i name="pawaedc"> -21968.10391450 </i>
    <i name="eentropy">     -0.00000000 </i>
    <i name="bandstr">  -1698.95856838 </i>
    <i name="atom">  14068.13175480 </i>
    <i name="e_fr_energy">   -236.72919412 </i>
    <i name="e_wo_entrp">   -236.72919412 </i>
    <i name="e_0_energy">   -236.72919412 </i>
   </energy>
  </scstep>
  <structure>
   <crystal>
    <varray name="basis" >
     <v>       2.61149501      -4.52324203       0.00000000 </v>
     <v>       2.61149501       4.52324203       0.00000000 </v>
     <v>       0.00000000       0.00000000      14.12924181 </v>
    </varray>
    <i name="volume">    333.80118964 </i>
    <varray name="rec_basis" >
     <v>       0.19146121      -0.11054018       0.00000000 </v>
     <v>       0.19146121       0.11054018       0.00000000 </v>
     <v>       0.00000000       0.00000000       0.07077521 </v>
    </varray>
   </crystal>
   <varray name="positions" >
    <v>       0.66666667       0.33333333       0.05065715 </v>
    <v>       0.00000000       0.00000000       0.21732382 </v>
    <v>       0.33333333       0.66666667       0.38399049 </v>
    <v>       0.66666667       0.33333333       0.55065715 </v>
    <v>       0.00000000       0.00000000       0.71732382 </v>
    <v>       0.33333333       0.66666667       0.88399049 </v>
    <v>       0.66666667       0.33333333       0.33256206 </v>
    <v>       0.33333333       0.66666667       0.16589539 </v>
    <v>       0.33333333       0.66666667       0.66589539 </v>
    <v>       0.00000000       0.00000000       0.49922872 </v>
    <v>       0.00000000       0.00000000       0.99922872 </v>
    <v>       0.66666667       0.33333333       0.83256206 </v>
    <v>       0.62148870       0.99074726       0.26994915 </v>
    <v>       0.00925274       0.63074144       0.26994915 </v>
    <v>       0.36925856       0.37851130       0.26994915 </v>
    <v>       0.03592523       0.32408060       0.10328249 </v>
    <v>       0.67591940       0.71184463       0.10328249 </v>
    <v>       0.28815537       0.96407477       0.10328249 </v>
    <v>       0.28815537       0.32408060       0.60328249 </v>
    <v>       0.67591940       0.96407477       0.60328249 </v>
    <v>       0.03592523       0.71184463       0.60328249 </v>
    <v>       0.70259190       0.65741393       0.43661582 </v>
    <v>       0.34258607       0.04517797       0.43661582 </v>
    <v>       0.95482203       0.29740810       0.43661582 </v>
    <v>       0.95482203       0.65741393       0.93661582 </v>
    <v>       0.34258607       0.29740810       0.93661582 </v>
    <v>       0.70259190       0.04517797       0.93661582 </v>
    <v>       0.36925856       0.99074726       0.76994915 </v>
    <v>       0.00925274       0.37851130       0.76994915 </v>
    <v>       0.62148870       0.63074144       0.76994915 </v>
   </varray>
  </structure>
  <varray name="forces" >
   <v>      -0.00000000       0.00000000       0.01288034 </v>
   <v>      -0.00000000       0.00000000       0.01288034 </v>
   <v>      -0.00000000       0.00000000       0.01288034 </v>
   <v>      -0.00000000       0.00000000       0.01288034 </v>
   <v>      -0.00000000       0.00000000       0.01288034 </v>
   <v>      -0.00000000       0.00000000       0.01288034 </v>
   <v>      -0.00000000       0.00000000      -0.00732952 </v>
   <v>      -0.00000000       0.00000000      -0.00732952 </v>
   <v>      -0.00000000       0.00000000      -0.00732952 </v>
   <v>      -0.00000000       0.00000000      -0.00732952 </v>
   <v>      -0.00000000       0.00000000      -0.00732952 </v>
   <v>      -0.00000000       0.00000000      -0.00732952 </v>
   <v>      -0.00015913      -0.00280520      -0.00185027 </v>
   <v>       0.00250894       0.00126479      -0.00185027 </v>
   <v>      -0.00234981       0.00154041      -0.00185027 </v>
   <v>      -0.00250894       0.00126479      -0.00185027 </v>
   <v>       0.00015913      -0.00280520      -0.00185027 </v>
   <v>       0.00234981       0.00154041      -0.00185027 </v>
   <v>      -0.00015913      -0.00280520      -0.00185027 </v>
[...]
       <r>    30.7041     0.0000   123.0000 </r>
       <r>    30.9133     0.0000   123.0000 </r>
       <r>    31.1226     0.0000   123.0000 </r>
       <r>    31.3318     0.0000   123.0000 </r>
       <r>    31.5410     0.0000   123.0000 </r>
       <r>    31.7503     0.0000   123.0000 </r>
       <r>    31.9595     0.0000   123.0000 </r>
       <r>    32.1688     0.0000   123.0000 </r>
       <r>    32.3780     0.0000   123.0000 </r>
       <r>    32.5872     0.0000   123.0000 </r>
       <r>    32.7965     0.0000   123.0000 </r>
       <r>    33.0057     0.0000   123.0000 </r>
       <r>    33.2150     0.0000   123.0000 </r>
       <r>    33.4242     0.0000   123.0000 </r>
       <r>    33.6334     0.0000   123.0000 </r>
       <r>    33.8427     0.0000   123.0000 </r>
       <r>    34.0519     0.0000   123.0000 </r>
       <r>    34.2612     0.0000   123.0000 </r>
       <r>    34.4704     0.0000   123.0000 </r>
       <r>    34.6796     0.0000   123.0000 </r>
       <r>    34.8889     0.0000   123.0000 </r>
       <r>    35.0981     0.0000   123.0000 </r>
       <r>    35.3074     0.0000   123.0000 </r>
       <r>    35.5166     0.0000   123.0000 </r>
       <r>    35.7258     0.0000   123.0000 </r>
       <r>    35.9351     0.0000   123.0000 </r>
       <r>    36.1443     0.0000   123.0000 </r>
       <r>    36.3536     0.0000   123.0000 </r>
       <r>    36.5628     0.0000   123.0000 </r>
       <r>    36.7720     0.0000   123.0000 </r>
       <r>    36.9813     0.0000   123.0000 </r>
       <r>    37.1905     0.0000   123.0000 </r>
       <r>    37.3998     0.0000   123.0000 </r>
       <r>    37.6090     0.0000   123.0000 </r>
       <r>    37.8182     0.0000   123.0000 </r>
       <r>    38.0275     0.0000   123.0000 </r>
       <r>    38.2367     0.0000   123.0000 </r>
       <r>    38.4460     0.0000   123.0000 </r>
       <r>    38.6552     0.0000   123.0000 </r>
       <r>    38.8644     0.0000   123.0000 </r>
       <r>    39.0737     0.0000   123.0000 </r>
       <r>    39.2829     0.0000   123.0000 </r>
       <r>    39.4922     0.0000   123.0000 </r>
       <r>    39.7014     0.0000   123.0000 </r>
       <r>    39.9106     0.0000   123.0000 </r>
       <r>    40.1199     0.0000   123.0000 </r>
       <r>    40.3291     0.0000   123.0000 </r>
       <r>    40.5384     0.0000   123.0000 </r>
       <r>    40.7476     0.0000   123.0000 </r>
       <r>    40.9568     0.0000   123.0000 </r>
       <r>    41.1661     0.0000   123.0000 </r>
       <r>    41.3753     0.0000   123.0000 </r>
       <r>    41.5846     0.0000   123.0000 </r>
      </set>
      <set comment="spin 2">
       <r>   -21.1875    86.0256    18.0000 </r>
       <r>   -20.9782     0.0000    18.0000 </r>
       <r>   -20.7690     0.0000    18.0000 </r>
       <r>   -20.5598     0.0000    18.0000 </r>
       <r>   -20.3505     0.0000    18.0000 </r>
       <r>   -20.1413     0.0000    18.0000 </r>
       <r>   -19.9320     0.0000    18.0000 </r>
       <r>   -19.7228     0.0000    18.0000 </r>
       <r>   -19.5136     0.0000    18.0000 </r>
       <r>   -19.3043     0.0000    18.0000 </r>
       <r>   -19.0951     0.0000    18.0000 </r>
       <r>   -18.8858     0.0000    18.0000 </r>
       <r>   -18.6766     0.0000    18.0000 </r>
       <r>   -18.4674     0.0000    18.0000 </r>
       <r>   -18.2581     0.0000    18.0000 </r>
       <r>   -18.0489     0.0000    18.0000 </r>
       <r>   -17.8396     0.0000    18.0000 </r>
       <r>   -17.6304     0.0000    18.0000 </r>
       <r>   -17.4212     0.0000    18.0000 </r>
       <r>   -17.2119     0.0000    18.0000 </r>
       <r>   -17.0027     0.0000    18.0000 </r>
       <r>   -16.7934     0.0000    18.0000 </r>
       <r>   -16.5842     0.0000    18.0000 </r>
       <r>   -16.3750     0.0000    18.0000 </r>
       <r>   -16.1657     0.0000    18.0000 </r>
       <r>   -15.9565    -0.0014    17.9997 </r>
       <r>   -15.7472     0.2162    18.0449 </r>
       <r>   -15.5380     1.1298    18.2813 </r>
       <r>   -15.3288     9.2660    20.2202 </r>
       <r>   -15.1195     7.3231    21.7524 </r>
       <r>   -14.9103    17.3520    25.3832 </r>
       <r>   -14.7010    13.5441    28.2171 </r>
       <r>   -14.4918    15.8546    31.5346 </r>
       <r>   -14.2826    20.1313    35.7468 </r>
       <r>   -14.0733     1.2094    35.9999 </r>
       <r>   -13.8641     0.0005    36.0000 </r>
       <r>   -13.6548     0.0000    36.0000 </r>
       <r>   -13.4456     0.0000    36.0000 </r>
       <r>   -13.2364     0.0000    36.0000 </r>
       <r>   -13.0271     0.0000    36.0000 </r>
       <r>   -12.8179     0.0000    36.0000 </r>
       <r>   -12.6086     0.0000    36.0000 </r>
       <r>   -12.3994     0.0000    36.0000 </r>
       <r>   -12.1902     0.0000    36.0000 </r>
       <r>   -11.9809     0.0000    36.0000 </r>
       <r>   -11.7717     0.0000    36.0000 </r>
       <r>   -11.5624     0.0000    36.0000 </r>
       <r>   -11.3532     0.0000    36.0000 </r>
       <r>   -11.1440     0.0000    36.0000 </r>
       <r>   -10.9347     0.0000    36.0000 </r>
       <r>   -10.7255     0.0000    36.0000 </r>
       <r>   -10.5162     0.0000    36.0000 </r>
       <r>   -10.3070     0.0000    36.0000 </r>
       <r>   -10.0978     0.0000    36.0000 </r>
       <r>    -9.8885     0.0000    36.0000 </r>
       <r>    -9.6793     0.0000    36.0000 </r>
       <r>    -9.4700     0.0000    36.0000 </r>
       <r>    -9.2608     0.0000    36.0000 </r>
       <r>    -9.0516     0.0000    36.0000 </r>
       <r>    -8.8423     0.0000    36.0000 </r>
       <r>    -8.6331     0.0000    36.0000 </r>
       <r>    -8.4238     0.0000    36.0000 </r>
       <r>    -8.2146     0.0000    36.0000 </r>
       <r>    -8.0054     0.0000    36.0000 </r>
       <r>    -7.7961     0.0000    36.0000 </r>
       <r>    -7.5869     0.0000    36.0000 </r>
       <r>    -7.3776     0.0000    36.0000 </r>
       <r>    -7.1684     0.0000    36.0000 </r>
       <r>    -6.9592     0.0000    36.0000 </r>
       <r>    -6.7499     0.0000    36.0000 </r>
       <r>    -6.5407     0.0000    36.0000 </r>
       <r>    -6.3314     0.0000    36.0000 </r>
       <r>    -6.1222     0.0000    36.0000 </r>
       <r>    -5.9130     0.0000    36.0000 </r>
       <r>    -5.7037     0.0000    36.0000 </r>
       <r>    -5.4945     0.0000    36.0000 </r>
       <r>    -5.2852     0.0000    36.0000 </r>
       <r>    -5.0760     0.0000    36.0000 </r>
       <r>    -4.8668     0.0000    36.0000 </r>
       <r>    -4.6575     0.0000    36.0000 </r>
       <r>    -4.4483     0.0000    36.0000 </r>
       <r>    -4.2390     0.0000    36.0000 </r>
       <r>    -4.0298     0.0000    36.0000 </r>
       <r>    -3.8206     0.0000    36.0000 </r>
       <r>    -3.6113     0.0012    36.0002 </r>
       <r>    -3.4021    -0.1125    35.9767 </r>
       <r>    -3.1928    11.3579    38.3532 </r>
       <r>    -2.9836    11.2606    40.7094 </r>
       <r>    -2.7744    11.9655    43.2130 </r>
       <r>    -2.5651    10.0618    45.3184 </r>
       <r>    -2.3559     9.0304    47.2079 </r>
       <r>    -2.1466    13.6714    50.0685 </r>
       <r>    -1.9374     9.2091    51.9954 </r>
       <r>    -1.7282     8.1581    53.7024 </r>
       <r>    -1.5189    13.1267    56.4490 </r>
       <r>    -1.3097    10.7766    58.7039 </r>
       <r>    -1.1004     8.0194    60.3819 </r>
       <r>    -0.8912    12.5417    63.0061 </r>
       <r>    -0.6820     5.5153    64.1601 </r>
       <r>    -0.4727     8.9201    66.0266 </r>
       <r>    -0.2635     6.9048    67.4713 </r>
       <r>    -0.0542    15.6468    70.7453 </r>
       <r>     0.1550    13.9926    73.6731 </r>
       <r>     0.3643    17.0025    77.2307 </r>
       <r>     0.5735    18.7940    81.1632 </r>
       <r>     0.7827    19.8230    85.3109 </r>
       <r>     0.9920    20.8252    89.6684 </r>
       <r>     1.2012     1.5787    89.9987 </r>
       <r>     1.4105     0.0061    90.0000 </r>
       <r>     1.6197     0.0000    90.0000 </r>
       <r>     1.8289     0.0000    90.0000 </r>
       <r>     2.0382     0.0000    90.0000 </r>
       <r>     2.2474     0.0000    90.0000 </r>
       <r>     2.4567     0.0000    90.0000 </r>
       <r>     2.6659     0.0000    90.0000 </r>
       <r>     2.8751     0.0000    90.0000 </r>
       <r>     3.0844     0.0000    90.0000 </r>
       <r>     3.2936     0.0000    90.0000 </r>
       <r>     3.5029     0.0000    90.0000 </r>
       <r>     3.7121     0.0000    90.0000 </r>
       <r>     3.9213     0.0000    90.0000 </r>
       <r>     4.1306     0.0002    90.0000 </r>
       <r>     4.3398    -0.0589    89.9877 </r>
       <r>     4.5491     3.6843    90.7586 </r>
       <r>     4.7583    10.4295    92.9409 </r>
       <r>     4.9675    10.5507    95.1485 </r>
       <r>     5.1768     6.4635    96.5010 </r>
       <r>     5.3860     6.2566    97.8101 </r>
       <r>     5.5953    14.1849   100.7781 </r>
       <r>     5.8045     9.3856   102.7420 </r>
       <r>     6.0137    16.1005   106.1109 </r>
       <r>     6.2230     9.1574   108.0270 </r>
       <r>     6.4322    -0.1295   107.9999 </r>
       <r>     6.6415     0.0007   108.0000 </r>
       <r>     6.8507     0.0000   108.0000 </r>
       <r>     7.0599     0.0000   108.0000 </r>
       <r>     7.2692     0.0000   108.0000 </r>
       <r>     7.4784     0.0000   108.0000 </r>
       <r>     7.6877     0.0000   108.0000 </r>
       <r>     7.8969     0.0010   108.0002 </r>
       <r>     8.1061     1.2955   108.2713 </r>
       <r>     8.3154    11.7251   110.7246 </r>
       <r>     8.5246     3.8293   111.5259 </r>
       <r>     8.7339     5.4523   112.6667 </r>
       <r>     8.9431     8.5578   114.4574 </r>
       <r>     9.1523     4.0954   115.3143 </r>
       <r>     9.3616     4.6471   116.2866 </r>
       <r>     9.5708     1.8462   116.6729 </r>
       <r>     9.7801     3.0698   117.3153 </r>
       <r>     9.9893     7.4394   118.8719 </r>
       <r>    10.1985     4.0956   119.7289 </r>
       <r>    10.4078     5.5472   120.8896 </r>
       <r>    10.6170     3.6156   121.6461 </r>
       <r>    10.8263     2.6940   122.2098 </r>
       <r>    11.0355     2.6342   122.7610 </r>
       <r>    11.2447     0.6718   122.9015 </r>
       <r>    11.4540     0.4656   122.9990 </r>
       <r>    11.6632     0.0050   123.0000 </r>
       <r>    11.8725     0.0000   123.0000 </r>
       <r>    12.0817     0.0000   123.0000 </r>
       <r>    12.2909     0.0000   123.0000 </r>
       <r>    12.5002     0.0000   123.0000 </r>
       <r>    12.7094     0.0000   123.0000 </r>
       <r>    12.9187     0.0000   123.0000 </r>
       <r>    13.1279     0.0000   123.0000 </r>
       <r>    13.3371     0.0000   123.0000 </r>
       <r>    13.5464     0.0000   123.0000 </r>
       <r>    13.7556     0.0000   123.0000 </r>
       <r>    13.9649     0.0000   123.0000 </r>
       <r>    14.1741     0.0000   123.0000 </r>
       <r>    14.3833     0.0000   123.0000 </r>
       <r>    14.5926     0.0000   123.0000 </r>
       <r>    14.8018     0.0000   123.0000 </r>
       <r>    15.0111     0.0000   123.0000 </r>
       <r>    15.2203     0.0000   123.0000 </r>
       <r>    15.4295     0.0000   123.0000 </r>
       <r>    15.6388     0.0000   123.0000 </r>
       <r>    15.8480     0.0000   123.0000 </r>
       <r>    16.0573     0.0000   123.0000 </r>
       <r>    16.2665     0.0000   123.0000 </r>
       <r>    16.4757     0.0000   123.0000 </r>
       <r>    16.6850     0.0000   123.0000 </r>
       <r>    16.8942     0.0000   123.0000 </r>
       <r>    17.1035     0.0000   123.0000 </r>
       <r>    17.3127     0.0000   123.0000 </r>
       <r>    17.5219     0.0000   123.0000 </r>
       <r>    17.7312     0.0000   123.0000 </r>
       <r>    17.9404     0.0000   123.0000 </r>
       <r>    18.1497     0.0000   123.0000 </r>
       <r>    18.3589     0.0000   123.0000 </r>
       <r>    18.5681     0.0000   123.0000 </r>
       <r>    18.7774     0.0000   123.0000 </r>
       <r>    18.9866     0.0000   123.0000 </r>
       <r>    19.1959     0.0000   123.0000 </r>
       <r>    19.4051     0.0000   123.0000 </r>
       <r>    19.6143     0.0000   123.0000 </r>
       <r>    19.8236     0.0000   123.0000 </r>
       <r>    20.0328     0.0000   123.0000 </r>
       <r>    20.2421     0.0000   123.0000 </r>
       <r>    20.4513     0.0000   123.0000 </r>
       <r>    20.6605     0.0000   123.0000 </r>
       <r>    20.8698     0.0000   123.0000 </r>
       <r>    21.0790     0.0000   123.0000 </r>
       <r>    21.2883     0.0000   123.0000 </r>
       <r>    21.4975     0.0000   123.0000 </r>
       <r>    21.7067     0.0000   123.0000 </r>
       <r>    21.9160     0.0000   123.0000 </r>
       <r>    22.1252     0.0000   123.0000 </r>
       <r>    22.3345     0.0000   123.0000 </r>
       <r>    22.5437     0.0000   123.0000 </r>
       <r>    22.7529     0.0000   123.0000 </r>
       <r>    22.9622     0.0000   123.0000 </r>
       <r>    23.1714     0.0000   123.0000 </r>
       <r>    23.3807     0.0000   123.0000 </r>
       <r>    23.5899     0.0000   123.0000 </r>
       <r>    23.7991     0.0000   123.0000 </r>
       <r>    24.0084     0.0000   123.0000 </r>
       <r>    24.2176     0.0000   123.0000 </r>
       <r>    24.4269     0.0000   123.0000 </r>
       <r>    24.6361     0.0000   123.0000 </r>
       <r>    24.8453     0.0000   123.0000 </r>
       <r>    25.0546     0.0000   123.0000 </r>
       <r>    25.2638     0.0000   123.0000 </r>
       <r>    25.4731     0.0000   123.0000 </r>
       <r>    25.6823     0.0000   123.0000 </r>
       <r>    25.8915     0.0000   123.0000 </r>
       <r>    26.1008     0.0000   123.0000 </r>
       <r>    26.3100     0.0000   123.0000 </r>
       <r>    26.5193     0.0000   123.0000 </r>
       <r>    26.7285     0.0000   123.0000 </r>
       <r>    26.9378     0.0000   123.0000 </r>
       <r>    27.1470     0.0000   123.0000 </r>
       <r>    27.3562     0.0000   123.0000 </r>
       <r>    27.5655     0.0000   123.0000 </r>
       <r>    27.7747     0.0000   123.0000 </r>
       <r>    27.9840     0.0000   123.0000 </r>
       <r>    28.1932     0.0000   123.0000 </r>
       <r>    28.4024     0.0000   123.0000 </r>
       <r>    28.6117     0.0000   123.0000 </r>
       <r>    28.8209     0.0000   123.0000 </r>
       <r>    29.0302     0.0000   123.0000 </r>
       <r>    29.2394     0.0000   123.0000 </r>
       <r>    29.4486     0.0000   123.0000 </r>
       <r>    29.6579     0.0000   123.0000 </r>
       <r>    29.8671     0.0000   123.0000 </r>
       <r>    30.0764     0.0000   123.0000 </r>
       <r>    30.2856     0.0000   123.0000 </r>
       <r>    30.4948     0.0000   123.0000 </r>
       <r>    30.7041     0.0000   123.0000 </r>
       <r>    30.9133     0.0000   123.0000 </r>
       <r>    31.1226     0.0000   123.0000 </r>
       <r>    31.3318     0.0000   123.0000 </r>
       <r>    31.5410     0.0000   123.0000 </r>
       <r>    31.7503     0.0000   123.0000 </r>
       <r>    31.9595     0.0000   123.0000 </r>
       <r>    32.1688     0.0000   123.0000 </r>
       <r>    32.3780     0.0000   123.0000 </r>
       <r>    32.5872     0.0000   123.0000 </r>
       <r>    32.7965     0.0000   123.0000 </r>
       <r>    33.0057     0.0000   123.0000 </r>
       <r>    33.2150     0.0000   123.0000 </r>
       <r>    33.4242     0.0000   123.0000 </r>
       <r>    33.6334     0.0000   123.0000 </r>
       <r>    33.8427     0.0000   123.0000 </r>
       <r>    34.0519     0.0000   123.0000 </r>
       <r>    34.2612     0.0000   123.0000 </r>
       <r>    34.4704     0.0000   123.0000 </r>
       <r>    34.6796     0.0000   123.0000 </r>
       <r>    34.8889     0.0000   123.0000 </r>
       <r>    35.0981     0.0000   123.0000 </r>
       <r>    35.3074     0.0000   123.0000 </r>
       <r>    35.5166     0.0000   123.0000 </r>
       <r>    35.7258     0.0000   123.0000 </r>
       <r>    35.9351     0.0000   123.0000 </r>
       <r>    36.1443     0.0000   123.0000 </r>
       <r>    36.3536     0.0000   123.0000 </r>
       <r>    36.5628     0.0000   123.0000 </r>
       <r>    36.7720     0.0000   123.0000 </r>
       <r>    36.9813     0.0000   123.0000 </r>
       <r>    37.1905     0.0000   123.0000 </r>
       <r>    37.3998     0.0000   123.0000 </r>
       <r>    37.6090     0.0000   123.0000 </r>
       <r>    37.8182     0.0000   123.0000 </r>
       <r>    38.0275     0.0000   123.0000 </r>
       <r>    38.2367     0.0000   123.0000 </r>
       <r>    38.4460     0.0000   123.0000 </r>
       <r>    38.6552     0.0000   123.0000 </r>
       <r>    38.8644     0.0000   123.0000 </r>
       <r>    39.0737     0.0000   123.0000 </r>
       <r>    39.2829     0.0000   123.0000 </r>
       <r>    39.4922     0.0000   123.0000 </r>
       <r>    39.7014     0.0000   123.0000 </r>
       <r>    39.9106     0.0000   123.0000 </r>
       <r>    40.1199     0.0000   123.0000 </r>
       <r>    40.3291     0.0000   123.0000 </r>
       <r>    40.5384     0.0000   123.0000 </r>
       <r>    40.7476     0.0000   123.0000 </r>
       <r>    40.9568     0.0000   123.0000 </r>
       <r>    41.1661     0.0000   123.0000 </r>
       <r>    41.3753     0.0000   123.0000 </r>
       <r>    41.5846     0.0000   123.0000 </r>
      </set>
     </set>
    </array>
   </total>
  </dos>
 </calculation>
 <structure name="finalpos" >
  <crystal>
   <varray name="basis" >
    <v>       2.61149501      -4.52324203       0.00000000 </v>
    <v>       2.61149501       4.52324203       0.00000000 </v>
    <v>       0.00000000       0.00000000      14.12924181 </v>
   </varray>
   <i name="volume">    333.80118964 </i>
   <varray name="rec_basis" >
    <v>       0.19146121      -0.11054018       0.00000000 </v>
    <v>       0.19146121       0.11054018       0.00000000 </v>
    <v>       0.00000000       0.00000000       0.07077521 </v>
   </varray>
  </crystal>
  <varray name="positions" >
   <v>       0.66666667       0.33333333       0.05076160 </v>
   <v>       0.00000000       0.00000000       0.21742826 </v>
   <v>       0.33333333       0.66666667       0.38409493 </v>
   <v>       0.66666667       0.33333333       0.55076160 </v>
   <v>       0.00000000       0.00000000       0.71742826 </v>
   <v>       0.33333333       0.66666667       0.88409493 </v>
   <v>       0.66666667       0.33333333       0.33252443 </v>
   <v>       0.33333333       0.66666667       0.16585777 </v>
   <v>       0.33333333       0.66666667       0.66585777 </v>
   <v>       0.00000000       0.00000000       0.49919110 </v>
   <v>       0.00000000       0.00000000       0.99919110 </v>
   <v>       0.66666667       0.33333333       0.83252443 </v>
   <v>       0.62174672       0.99084523       0.26992688 </v>
   <v>       0.00915477       0.63090149       0.26992688 </v>
   <v>       0.36909851       0.37825328       0.26992688 </v>
   <v>       0.03576518       0.32417857       0.10326021 </v>
   <v>       0.67582143       0.71158661       0.10326021 </v>
   <v>       0.28841339       0.96423482       0.10326021 </v>
   <v>       0.28841339       0.32417857       0.60326021 </v>
   <v>       0.67582143       0.96423482       0.60326021 </v>
   <v>       0.03576518       0.71158661       0.60326021 </v>
   <v>       0.70243185       0.65751190       0.43659355 </v>
   <v>       0.34248810       0.04491995       0.43659355 </v>
   <v>       0.95508005       0.29756815       0.43659355 </v>
   <v>       0.95508005       0.65751190       0.93659355 </v>
   <v>       0.34248810       0.29756815       0.93659355 </v>
   <v>       0.70243185       0.04491995       0.93659355 </v>
   <v>       0.36909851       0.99084523       0.76992688 </v>
   <v>       0.00915477       0.37825328       0.76992688 </v>
   <v>       0.62174672       0.63090149       0.76992688 </v>
  </varray>
 </structure>
</modeling>
