    2    2  100    1
  0.5461575E+03  0.1010000E-08  0.1030000E-08  0.1050000E-08  0.5000000E-15
  1.000000000000000E-004
  CAR 
 Hello World                             
   10    1    9
 
  0.0000000E+00  0.0000000E+00  0.0000000E+00  0.1000000E+01
   1      -29.143790
   2      -13.932313
   3      -11.629639
   4      -11.629024
   5       -8.930701
   6       -2.033826
   7       -2.032541
   8       -0.226000
   9        0.971757
