Hello World                             
           1
    10.100000    0.000000    0.000000
     0.000000   10.300000    0.000000
     0.000000    0.000000   10.500000
   C    O 
   1   1
Direct configuration=     1
   0.00000000  0.00000000  0.00000000
   0.00000000  0.00000000  0.11428571
Direct configuration=     2
   0.00000000  0.00000000  0.02416093
   0.00000000  0.00000000  0.09012478
Direct configuration=     3
   0.00000000  0.00000000  0.00039936
   0.00000000  0.00000000  0.11388636
Direct configuration=     4
   0.00000000  0.00000000  0.00074448
   0.00000000  0.00000000  0.11354124
Direct configuration=     5
   0.00000000  0.00000000  0.00307637
   0.00000000  0.00000000  0.11120935
Direct configuration=     6
   0.00000000  0.00000000  0.00262130
   0.00000000  0.00000000  0.11166441
Direct configuration=     7
   0.00000000  0.00000000  0.00267611
   0.00000000  0.00000000  0.11160960
Direct configuration=     8
   0.00000000  0.00000000  0.00269667
   0.00000000  0.00000000  0.11158905
Direct configuration=     9
   0.00000000  0.00000000  0.00268931
   0.00000000  0.00000000  0.11159641
Direct configuration=    10
   0.00000000  0.00000000  0.00267226
   0.00000000  0.00000000  0.11161345
Direct configuration=    11
   0.00000000  0.00000000  0.00268326
   0.00000000  0.00000000  0.11160246
