  12  12   0   0
  0.2057058E+02  0.3986512E-09  0.2818890E-09  0.2196628E-08  0.5000000E-15
  1.000000000000000E-004
  CAR 
 Crystal                                 
     22.12129523     -9.74784977  301      1.20950118      1.00000000
     -9.748  0.0000E+00  0.0000E+00  0.0000E+00  0.0000E+00
     -9.642  0.0000E+00  0.0000E+00  0.0000E+00  0.0000E+00
     -9.535  0.0000E+00  0.0000E+00  0.0000E+00  0.0000E+00
     -9.429  0.0000E+00  0.0000E+00  0.0000E+00  0.0000E+00
     -9.323  0.0000E+00  0.0000E+00  0.0000E+00  0.0000E+00
     -9.217  0.0000E+00  0.0000E+00  0.0000E+00  0.0000E+00
     -9.110  0.0000E+00  0.0000E+00  0.0000E+00  0.0000E+00
     -9.004  0.0000E+00  0.0000E+00  0.0000E+00  0.0000E+00
     -8.898  0.0000E+00  0.0000E+00  0.0000E+00  0.0000E+00
     -8.792  0.0000E+00  0.0000E+00  0.0000E+00  0.0000E+00
     -8.686  0.0000E+00  0.0000E+00  0.0000E+00  0.0000E+00
     -8.579  0.0000E+00  0.0000E+00  0.0000E+00  0.0000E+00
     -8.473  0.0000E+00  0.0000E+00  0.0000E+00  0.0000E+00
     -8.367  0.0000E+00  0.0000E+00  0.0000E+00  0.0000E+00
     -8.261  0.0000E+00  0.0000E+00  0.0000E+00  0.0000E+00
     -8.154  0.0000E+00  0.0000E+00  0.0000E+00  0.0000E+00
     -8.048  0.2232E-31  0.0000E+00  0.2371E-32  0.0000E+00
     -7.942  0.3059E-24  0.0000E+00  0.3250E-25  0.0000E+00
     -7.836  0.4085E-18  0.7965E-29  0.4340E-19  0.8462E-30
     -7.729  0.5163E-13  0.4938E-22  0.5485E-14  0.5246E-23
     -7.623  0.5794E-09  0.2957E-16  0.6156E-10  0.3141E-17
     -7.517  0.4989E-06  0.1650E-11  0.5306E-07  0.1752E-12
     -7.411  0.1626E-04  0.7893E-08  0.1780E-05  0.8386E-09
     -7.305 -0.1917E-03  0.2597E-05 -0.1859E-04  0.2767E-06
     -7.198  0.2049E-02  0.4429E-06  0.1991E-03  0.3237E-06
     -7.092  0.1773E-02 -0.3920E-04  0.3875E-03 -0.3840E-05
     -6.986 -0.1766E-03  0.3083E-02  0.3687E-03  0.3236E-03
     -6.880  0.1524E-04  0.4882E-03  0.3703E-03  0.3755E-03
     -6.773  0.3035E-05 -0.5513E-04  0.3707E-03  0.3697E-03
     -6.667 -0.6734E-06  0.6702E-05  0.3706E-03  0.3704E-03
     -6.561 -0.2826E-04  0.3275E-05  0.3676E-03  0.3707E-03
     -6.455  0.3095E-02 -0.7412E-05  0.6964E-03  0.3699E-03
     -6.348  0.4803E-03  0.3726E-04  0.7474E-03  0.3739E-03
     -6.242 -0.2049E-03  0.3145E-02  0.7256E-03  0.7080E-03
     -6.136  0.1379E-02  0.3685E-03  0.8721E-03  0.7471E-03
     -6.030  0.5935E-02 -0.3291E-03  0.1503E-02  0.7122E-03
     -5.924 -0.2173E-03  0.2752E-02  0.1479E-02  0.1005E-02
     -5.817  0.1515E-04  0.4847E-02  0.1481E-02  0.1519E-02
     -5.711  0.2534E-04 -0.3912E-03  0.1484E-02  0.1478E-02
     -5.605 -0.1853E-03  0.3252E-04  0.1464E-02  0.1481E-02
     -5.499  0.1681E-02  0.8184E-05  0.1643E-02  0.1482E-02
     -5.392  0.8874E-02  0.1554E-04  0.2585E-02  0.1484E-02
     -5.286  0.1136E-04 -0.2580E-03  0.2587E-02  0.1456E-02
     -5.180  0.6684E-03  0.9026E-02  0.2658E-02  0.2415E-02
     -5.074  0.6297E-02  0.1878E-02  0.3327E-02  0.2615E-02
     -4.967  0.7210E-04 -0.4987E-03  0.3334E-02  0.2562E-02
     -4.861 -0.1031E-04  0.5734E-02  0.3333E-02  0.3171E-02
     -4.755  0.5289E-04  0.1696E-02  0.3339E-02  0.3351E-02
     -4.649 -0.4934E-03 -0.1863E-03  0.3286E-02  0.3331E-02
     -4.543  0.8279E-02  0.2461E-04  0.4166E-02  0.3334E-02
     -4.436  0.1317E-01  0.2905E-04  0.5564E-02  0.3337E-02
     -4.330  0.1113E-01 -0.3976E-03  0.6747E-02  0.3295E-02
     -4.224 -0.8976E-03  0.9585E-02  0.6652E-02  0.4313E-02
     -4.118  0.1221E-01  0.4516E-02  0.7949E-02  0.4793E-02
     -4.011  0.7377E-02  0.1089E-01  0.8733E-02  0.5950E-02
     -3.905  0.4846E-02  0.7146E-02  0.9247E-02  0.6709E-02
     -3.799  0.1014E-01 -0.3796E-03  0.1032E-01  0.6669E-02
     -3.693  0.2493E-01 -0.6406E-03  0.1297E-01  0.6601E-02
     -3.586  0.1161E-01  0.6799E-02  0.1421E-01  0.7323E-02
     -3.480  0.1010E-02  0.7957E-02  0.1431E-01  0.8168E-02
     -3.374  0.2805E-01  0.6958E-02  0.1729E-01  0.8907E-02
     -3.268  0.4346E-01  0.7363E-02  0.2191E-01  0.9689E-02
     -3.162  0.2317E-01 -0.9090E-03  0.2437E-01  0.9593E-02
     -3.055  0.3696E-01  0.3905E-02  0.2830E-01  0.1001E-01
     -2.949  0.1160E-01  0.1418E-01  0.2953E-01  0.1151E-01
     -2.843  0.2646E-01  0.1114E-01  0.3234E-01  0.1270E-01
     -2.737  0.2830E-01  0.2691E-02  0.3535E-01  0.1298E-01
     -2.630  0.4221E-01  0.2718E-02  0.3983E-01  0.1327E-01
     -2.524  0.2250E-01  0.9820E-03  0.4222E-01  0.1338E-01
     -2.418  0.1972E-01  0.3164E-02  0.4432E-01  0.1371E-01
     -2.312  0.2996E-01 -0.9247E-03  0.4750E-01  0.1361E-01
     -2.205  0.4688E-01  0.2337E-01  0.5248E-01  0.1610E-01
     -2.099  0.8093E-01  0.3763E-01  0.6108E-01  0.2009E-01
     -1.993  0.5269E-01  0.4935E-02  0.6667E-01  0.2062E-01
     -1.887  0.4066E-01  0.2504E-01  0.7099E-01  0.2328E-01
     -1.781  0.3802E-01  0.1037E-01  0.7503E-01  0.2438E-01
     -1.674  0.3632E-01  0.2189E-01  0.7889E-01  0.2671E-01
     -1.568  0.5985E-01  0.1494E-01  0.8525E-01  0.2829E-01
     -1.462  0.4691E-01  0.1606E-01  0.9023E-01  0.3000E-01
     -1.356  0.3884E-01  0.1180E-01  0.9436E-01  0.3125E-01
     -1.249  0.4273E-01  0.3369E-01  0.9890E-01  0.3483E-01
     -1.143  0.4981E-01  0.2572E-01  0.1042E+00  0.3756E-01
     -1.037  0.2452E-01  0.2485E-01  0.1068E+00  0.4020E-01
     -0.931  0.2336E-01  0.1251E-01  0.1093E+00  0.4153E-01
     -0.824  0.4306E-01  0.1864E-01  0.1138E+00  0.4351E-01
     -0.718  0.2014E-01  0.1244E-01  0.1160E+00  0.4484E-01
     -0.612  0.2347E-01  0.4147E-01  0.1185E+00  0.4924E-01
     -0.506  0.4230E-01  0.5603E-01  0.1230E+00  0.5519E-01
     -0.400  0.3490E-01  0.3976E-01  0.1267E+00  0.5942E-01
     -0.293  0.5691E-01  0.4938E-01  0.1327E+00  0.6466E-01
     -0.187  0.3826E-01  0.2787E-01  0.1368E+00  0.6762E-01
     -0.081  0.5816E-01  0.3169E-01  0.1430E+00  0.7099E-01
      0.025  0.6415E-01  0.4870E-01  0.1498E+00  0.7616E-01
      0.132  0.1026E+00  0.5623E-01  0.1607E+00  0.8214E-01
      0.238  0.1125E+00  0.3139E-01  0.1726E+00  0.8547E-01
      0.344  0.8591E-01  0.4676E-01  0.1818E+00  0.9044E-01
      0.450  0.4256E-01  0.4533E-01  0.1863E+00  0.9525E-01
      0.557  0.5560E-01  0.1879E-01  0.1922E+00  0.9725E-01
      0.663  0.3653E-01  0.3180E-01  0.1961E+00  0.1006E+00
      0.769  0.1649E-01  0.2957E-01  0.1978E+00  0.1038E+00
      0.875  0.4635E-01  0.4558E-01  0.2027E+00  0.1086E+00
      0.981  0.1922E-01  0.3379E-01  0.2048E+00  0.1122E+00
      1.088  0.6195E-02  0.1674E-01  0.2054E+00  0.1140E+00
      1.194  0.1510E-02  0.5608E-03  0.2056E+00  0.1140E+00
      1.300  0.3096E-01  0.2203E-01  0.2089E+00  0.1164E+00
      1.406  0.9967E-02  0.2218E-01  0.2099E+00  0.1187E+00
      1.513  0.5401E-03  0.1728E-01  0.2100E+00  0.1206E+00
      1.619 -0.5416E-04  0.2170E-01  0.2100E+00  0.1229E+00
      1.725  0.1389E-04  0.2412E-01  0.2100E+00  0.1254E+00
      1.831  0.1761E-06  0.1747E-01  0.2100E+00  0.1273E+00
      1.938  0.1229E-09  0.1617E-01  0.2100E+00  0.1290E+00
      2.044  0.6914E-14  0.6295E-01  0.2100E+00  0.1357E+00
      2.150  0.0000E+00  0.1798E-01  0.2100E+00  0.1376E+00
      2.256  0.0000E+00  0.3196E-01  0.2100E+00  0.1410E+00
      2.362  0.0000E+00  0.2349E-01  0.2100E+00  0.1435E+00
      2.469  0.0000E+00  0.5278E-01  0.2100E+00  0.1491E+00
      2.575  0.0000E+00  0.7269E-01  0.2100E+00  0.1568E+00
      2.681  0.0000E+00  0.6148E-01  0.2100E+00  0.1634E+00
      2.787  0.0000E+00  0.6526E-01  0.2100E+00  0.1703E+00
      2.894  0.0000E+00  0.7712E-01  0.2100E+00  0.1785E+00
      3.000  0.0000E+00  0.8889E-01  0.2100E+00  0.1879E+00
      3.106  0.0000E+00  0.7741E-01  0.2100E+00  0.1962E+00
      3.212  0.0000E+00  0.6281E-01  0.2100E+00  0.2028E+00
      3.318  0.0000E+00  0.2970E-01  0.2100E+00  0.2060E+00
      3.425  0.0000E+00  0.5102E-02  0.2100E+00  0.2065E+00
      3.531  0.0000E+00  0.1842E-01  0.2100E+00  0.2085E+00
      3.637  0.0000E+00  0.1540E-01  0.2100E+00  0.2101E+00
      3.743  0.0000E+00 -0.1160E-02  0.2100E+00  0.2100E+00
      3.850  0.0000E+00  0.1030E-03  0.2100E+00  0.2100E+00
      3.956  0.0000E+00  0.5723E-05  0.2100E+00  0.2100E+00
      4.062  0.0000E+00  0.1045E-07  0.2100E+00  0.2100E+00
      4.168  0.0000E+00  0.1452E-11  0.2100E+00  0.2100E+00
      4.275  0.0000E+00  0.1703E-16  0.2100E+00  0.2100E+00
      4.381  0.0000E+00  0.0000E+00  0.2100E+00  0.2100E+00
      4.487  0.0000E+00  0.0000E+00  0.2100E+00  0.2100E+00
      4.593  0.0000E+00  0.0000E+00  0.2100E+00  0.2100E+00
      4.699  0.0000E+00  0.0000E+00  0.2100E+00  0.2100E+00
      4.806  0.0000E+00  0.0000E+00  0.2100E+00  0.2100E+00
      4.912  0.0000E+00  0.0000E+00  0.2100E+00  0.2100E+00
      5.018  0.0000E+00  0.0000E+00  0.2100E+00  0.2100E+00
      5.124  0.0000E+00  0.0000E+00  0.2100E+00  0.2100E+00
      5.231  0.0000E+00  0.0000E+00  0.2100E+00  0.2100E+00
      5.337  0.0000E+00  0.0000E+00  0.2100E+00  0.2100E+00
      5.443  0.0000E+00  0.0000E+00  0.2100E+00  0.2100E+00
      5.549  0.0000E+00  0.0000E+00  0.2100E+00  0.2100E+00
      5.656  0.0000E+00  0.0000E+00  0.2100E+00  0.2100E+00
      5.762  0.0000E+00  0.0000E+00  0.2100E+00  0.2100E+00
      5.868  0.0000E+00  0.0000E+00  0.2100E+00  0.2100E+00
      5.974  0.0000E+00  0.0000E+00  0.2100E+00  0.2100E+00
      6.080  0.0000E+00  0.0000E+00  0.2100E+00  0.2100E+00
      6.187  0.0000E+00  0.0000E+00  0.2100E+00  0.2100E+00
      6.293  0.0000E+00  0.0000E+00  0.2100E+00  0.2100E+00
      6.399  0.0000E+00  0.0000E+00  0.2100E+00  0.2100E+00
      6.505  0.0000E+00  0.0000E+00  0.2100E+00  0.2100E+00
      6.612  0.0000E+00  0.0000E+00  0.2100E+00  0.2100E+00
      6.718  0.0000E+00  0.0000E+00  0.2100E+00  0.2100E+00
      6.824  0.0000E+00  0.0000E+00  0.2100E+00  0.2100E+00
      6.930  0.0000E+00  0.0000E+00  0.2100E+00  0.2100E+00
      7.037  0.0000E+00  0.0000E+00  0.2100E+00  0.2100E+00
      7.143  0.0000E+00  0.0000E+00  0.2100E+00  0.2100E+00
      7.249  0.0000E+00  0.0000E+00  0.2100E+00  0.2100E+00
      7.355  0.0000E+00  0.0000E+00  0.2100E+00  0.2100E+00
      7.461  0.0000E+00  0.0000E+00  0.2100E+00  0.2100E+00
      7.568  0.0000E+00  0.0000E+00  0.2100E+00  0.2100E+00
      7.674  0.0000E+00  0.0000E+00  0.2100E+00  0.2100E+00
      7.780  0.0000E+00  0.0000E+00  0.2100E+00  0.2100E+00
      7.886  0.0000E+00  0.0000E+00  0.2100E+00  0.2100E+00
      7.993  0.0000E+00  0.0000E+00  0.2100E+00  0.2100E+00
      8.099  0.0000E+00  0.0000E+00  0.2100E+00  0.2100E+00
      8.205  0.0000E+00  0.0000E+00  0.2100E+00  0.2100E+00
      8.311  0.0000E+00  0.0000E+00  0.2100E+00  0.2100E+00
      8.418  0.0000E+00  0.0000E+00  0.2100E+00  0.2100E+00
      8.524  0.0000E+00  0.0000E+00  0.2100E+00  0.2100E+00
      8.630  0.0000E+00  0.0000E+00  0.2100E+00  0.2100E+00
      8.736  0.0000E+00  0.0000E+00  0.2100E+00  0.2100E+00
      8.842  0.0000E+00  0.0000E+00  0.2100E+00  0.2100E+00
      8.949  0.0000E+00  0.0000E+00  0.2100E+00  0.2100E+00
      9.055  0.0000E+00  0.0000E+00  0.2100E+00  0.2100E+00
      9.161  0.0000E+00  0.0000E+00  0.2100E+00  0.2100E+00
      9.267  0.0000E+00  0.0000E+00  0.2100E+00  0.2100E+00
      9.374  0.0000E+00  0.0000E+00  0.2100E+00  0.2100E+00
      9.480  0.0000E+00  0.0000E+00  0.2100E+00  0.2100E+00
      9.586  0.0000E+00  0.0000E+00  0.2100E+00  0.2100E+00
      9.692  0.0000E+00  0.0000E+00  0.2100E+00  0.2100E+00
      9.799  0.0000E+00  0.0000E+00  0.2100E+00  0.2100E+00
      9.905  0.0000E+00  0.0000E+00  0.2100E+00  0.2100E+00
     10.011  0.0000E+00  0.0000E+00  0.2100E+00  0.2100E+00
     10.117  0.0000E+00  0.0000E+00  0.2100E+00  0.2100E+00
     10.223  0.0000E+00  0.0000E+00  0.2100E+00  0.2100E+00
     10.330  0.0000E+00  0.0000E+00  0.2100E+00  0.2100E+00
     10.436  0.0000E+00  0.0000E+00  0.2100E+00  0.2100E+00
     10.542  0.0000E+00  0.0000E+00  0.2100E+00  0.2100E+00
     10.648  0.0000E+00  0.0000E+00  0.2100E+00  0.2100E+00
     10.755  0.0000E+00  0.0000E+00  0.2100E+00  0.2100E+00
     10.861  0.0000E+00  0.0000E+00  0.2100E+00  0.2100E+00
     10.967  0.0000E+00  0.0000E+00  0.2100E+00  0.2100E+00
     11.073  0.0000E+00  0.0000E+00  0.2100E+00  0.2100E+00
     11.180  0.0000E+00  0.0000E+00  0.2100E+00  0.2100E+00
     11.286  0.0000E+00  0.0000E+00  0.2100E+00  0.2100E+00
     11.392  0.0000E+00  0.0000E+00  0.2100E+00  0.2100E+00
     11.498  0.0000E+00  0.0000E+00  0.2100E+00  0.2100E+00
     11.604  0.0000E+00  0.0000E+00  0.2100E+00  0.2100E+00
     11.711  0.0000E+00  0.0000E+00  0.2100E+00  0.2100E+00
     11.817  0.0000E+00  0.0000E+00  0.2100E+00  0.2100E+00
     11.923  0.0000E+00  0.0000E+00  0.2100E+00  0.2100E+00
     12.029  0.0000E+00  0.0000E+00  0.2100E+00  0.2100E+00
     12.136  0.0000E+00  0.0000E+00  0.2100E+00  0.2100E+00
     12.242  0.0000E+00  0.0000E+00  0.2100E+00  0.2100E+00
     12.348  0.0000E+00  0.0000E+00  0.2100E+00  0.2100E+00
     12.454  0.0000E+00  0.0000E+00  0.2100E+00  0.2100E+00
     12.561  0.0000E+00  0.0000E+00  0.2100E+00  0.2100E+00
     12.667  0.0000E+00  0.0000E+00  0.2100E+00  0.2100E+00
     12.773  0.0000E+00  0.0000E+00  0.2100E+00  0.2100E+00
     12.879  0.0000E+00  0.0000E+00  0.2100E+00  0.2100E+00
     12.985  0.0000E+00  0.0000E+00  0.2100E+00  0.2100E+00
     13.092  0.0000E+00  0.0000E+00  0.2100E+00  0.2100E+00
     13.198  0.0000E+00  0.0000E+00  0.2100E+00  0.2100E+00
     13.304  0.0000E+00  0.0000E+00  0.2100E+00  0.2100E+00
     13.410  0.0000E+00  0.0000E+00  0.2100E+00  0.2100E+00
     13.517  0.0000E+00  0.0000E+00  0.2100E+00  0.2100E+00
     13.623  0.0000E+00  0.0000E+00  0.2100E+00  0.2100E+00
     13.729  0.0000E+00  0.0000E+00  0.2100E+00  0.2100E+00
     13.835  0.0000E+00  0.0000E+00  0.2100E+00  0.2100E+00
     13.942  0.0000E+00  0.0000E+00  0.2100E+00  0.2100E+00
     14.048  0.0000E+00  0.0000E+00  0.2100E+00  0.2100E+00
     14.154  0.0000E+00  0.0000E+00  0.2100E+00  0.2100E+00
     14.260  0.0000E+00  0.0000E+00  0.2100E+00  0.2100E+00
     14.366  0.0000E+00  0.0000E+00  0.2100E+00  0.2100E+00
     14.473  0.0000E+00  0.0000E+00  0.2100E+00  0.2100E+00
     14.579  0.0000E+00  0.0000E+00  0.2100E+00  0.2100E+00
     14.685  0.0000E+00  0.0000E+00  0.2100E+00  0.2100E+00
     14.791  0.0000E+00  0.0000E+00  0.2100E+00  0.2100E+00
     14.898  0.0000E+00  0.0000E+00  0.2100E+00  0.2100E+00
     15.004  0.0000E+00  0.0000E+00  0.2100E+00  0.2100E+00
     15.110  0.0000E+00  0.0000E+00  0.2100E+00  0.2100E+00
     15.216  0.0000E+00  0.0000E+00  0.2100E+00  0.2100E+00
     15.323  0.0000E+00  0.0000E+00  0.2100E+00  0.2100E+00
     15.429  0.0000E+00  0.0000E+00  0.2100E+00  0.2100E+00
     15.535  0.0000E+00  0.0000E+00  0.2100E+00  0.2100E+00
     15.641  0.0000E+00  0.0000E+00  0.2100E+00  0.2100E+00
     15.747  0.0000E+00  0.0000E+00  0.2100E+00  0.2100E+00
     15.854  0.0000E+00  0.0000E+00  0.2100E+00  0.2100E+00
     15.960  0.0000E+00  0.0000E+00  0.2100E+00  0.2100E+00
     16.066  0.0000E+00  0.0000E+00  0.2100E+00  0.2100E+00
     16.172  0.0000E+00  0.0000E+00  0.2100E+00  0.2100E+00
     16.279  0.0000E+00  0.0000E+00  0.2100E+00  0.2100E+00
     16.385  0.0000E+00  0.0000E+00  0.2100E+00  0.2100E+00
     16.491  0.0000E+00  0.0000E+00  0.2100E+00  0.2100E+00
     16.597  0.0000E+00  0.0000E+00  0.2100E+00  0.2100E+00
     16.704  0.0000E+00  0.0000E+00  0.2100E+00  0.2100E+00
     16.810  0.0000E+00  0.0000E+00  0.2100E+00  0.2100E+00
     16.916  0.0000E+00  0.0000E+00  0.2100E+00  0.2100E+00
     17.022  0.0000E+00  0.0000E+00  0.2100E+00  0.2100E+00
     17.128  0.0000E+00  0.0000E+00  0.2100E+00  0.2100E+00
     17.235  0.0000E+00  0.0000E+00  0.2100E+00  0.2100E+00
     17.341  0.0000E+00  0.0000E+00  0.2100E+00  0.2100E+00
     17.447  0.0000E+00  0.0000E+00  0.2100E+00  0.2100E+00
     17.553  0.0000E+00  0.0000E+00  0.2100E+00  0.2100E+00
     17.660  0.0000E+00  0.0000E+00  0.2100E+00  0.2100E+00
     17.766  0.0000E+00  0.0000E+00  0.2100E+00  0.2100E+00
     17.872  0.0000E+00  0.0000E+00  0.2100E+00  0.2100E+00
     17.978  0.0000E+00  0.0000E+00  0.2100E+00  0.2100E+00
     18.085  0.0000E+00  0.0000E+00  0.2100E+00  0.2100E+00
     18.191  0.0000E+00  0.0000E+00  0.2100E+00  0.2100E+00
     18.297  0.0000E+00  0.0000E+00  0.2100E+00  0.2100E+00
     18.403  0.0000E+00  0.0000E+00  0.2100E+00  0.2100E+00
     18.509  0.0000E+00  0.0000E+00  0.2100E+00  0.2100E+00
     18.616  0.0000E+00  0.0000E+00  0.2100E+00  0.2100E+00
     18.722  0.0000E+00  0.0000E+00  0.2100E+00  0.2100E+00
     18.828  0.0000E+00  0.0000E+00  0.2100E+00  0.2100E+00
     18.934  0.0000E+00  0.0000E+00  0.2100E+00  0.2100E+00
     19.041  0.0000E+00  0.0000E+00  0.2100E+00  0.2100E+00
     19.147  0.0000E+00  0.0000E+00  0.2100E+00  0.2100E+00
     19.253  0.0000E+00  0.0000E+00  0.2100E+00  0.2100E+00
     19.359  0.0000E+00  0.0000E+00  0.2100E+00  0.2100E+00
     19.466  0.0000E+00  0.0000E+00  0.2100E+00  0.2100E+00
     19.572  0.0000E+00  0.0000E+00  0.2100E+00  0.2100E+00
     19.678  0.0000E+00  0.0000E+00  0.2100E+00  0.2100E+00
     19.784  0.0000E+00  0.0000E+00  0.2100E+00  0.2100E+00
     19.890  0.0000E+00  0.0000E+00  0.2100E+00  0.2100E+00
     19.997  0.0000E+00  0.0000E+00  0.2100E+00  0.2100E+00
     20.103  0.0000E+00  0.0000E+00  0.2100E+00  0.2100E+00
     20.209  0.0000E+00  0.0000E+00  0.2100E+00  0.2100E+00
     20.315  0.0000E+00  0.0000E+00  0.2100E+00  0.2100E+00
     20.422  0.0000E+00  0.0000E+00  0.2100E+00  0.2100E+00
     20.528  0.0000E+00  0.0000E+00  0.2100E+00  0.2100E+00
     20.634  0.0000E+00  0.0000E+00  0.2100E+00  0.2100E+00
     20.740  0.0000E+00  0.0000E+00  0.2100E+00  0.2100E+00
     20.847  0.0000E+00  0.0000E+00  0.2100E+00  0.2100E+00
     20.953  0.0000E+00  0.0000E+00  0.2100E+00  0.2100E+00
     21.059  0.0000E+00  0.0000E+00  0.2100E+00  0.2100E+00
     21.165  0.0000E+00  0.0000E+00  0.2100E+00  0.2100E+00
     21.271  0.0000E+00  0.0000E+00  0.2100E+00  0.2100E+00
     21.378  0.0000E+00  0.0000E+00  0.2100E+00  0.2100E+00
     21.484  0.0000E+00  0.0000E+00  0.2100E+00  0.2100E+00
     21.590  0.0000E+00  0.0000E+00  0.2100E+00  0.2100E+00
     21.696  0.0000E+00  0.0000E+00  0.2100E+00  0.2100E+00
     21.803  0.0000E+00  0.0000E+00  0.2100E+00  0.2100E+00
     21.909  0.0000E+00  0.0000E+00  0.2100E+00  0.2100E+00
     22.015  0.0000E+00  0.0000E+00  0.2100E+00  0.2100E+00
     22.121  0.0000E+00  0.0000E+00  0.2100E+00  0.2100E+00
