   12   12  300    2
  0.2057058E+02  0.3986512E-09  0.2818890E-09  0.2196628E-08  0.5000000E-15
  1.000000000000000E-004
  CAR 
 Crystal                                 
   96    4   63
 
  0.0000000E+00  0.0000000E+00  0.0000000E+00  0.1111111E+00
   1       -7.201881     -7.025728
   2       -6.495457     -6.287685
   3       -5.482183     -5.219159
   4       -4.452717     -3.968995
   5       -3.936571     -2.993725
   6       -3.887046     -2.667571
   7       -3.780738     -2.479843
   8       -3.729937     -1.976917
   9       -3.722731     -1.966849
  10       -3.430711     -1.940943
  11       -3.424104     -1.649999
  12       -3.382705     -1.575906
  13       -3.093478     -1.335716
  14       -3.059390     -1.256811
  15       -2.858728     -1.054707
  16       -2.311194     -0.607134
  17       -2.216782     -0.562383
  18       -2.156312     -0.324706
  19       -2.082467     -0.277417
  20       -1.946446     -0.048341
  21       -1.795945      0.082579
  22       -1.679359      0.274593
  23       -1.463053      0.412915
  24       -1.417039      0.539343
  25       -1.350109      0.557581
  26       -1.284157      0.659574
  27       -1.263886      0.686890
  28       -1.256982      0.688215
  29       -1.186650      0.719595
  30       -1.170359      0.804190
  31       -1.130485      0.824692
  32       -0.783364      0.886809
  33       -0.416370      1.309481
  34       -0.366207      1.422225
  35       -0.341868      1.754651
  36       -0.291716      1.803767
  37       -0.224256      1.907137
  38       -0.198383      1.963578
  39       -0.129979      2.034559
  40       -0.097117      2.217941
  41       -0.040546      2.419044
  42       -0.040500      2.428600
  43        0.021490      2.442379
  44        0.028948      2.515773
  45        0.038229      2.582236
  46        0.050307      2.639012
  47        0.055630      2.644139
  48        0.072321      2.646784
  49        0.113098      2.684017
  50        0.119517      2.741325
  51        0.177598      2.743194
  52        0.218129      2.764598
  53        0.357374      2.839910
  54        0.402321      2.865342
  55        0.546121      2.903232
  56        0.928069      2.923608
  57        0.959991      3.107746
  58        1.040397      3.122537
  59        1.060476      3.230648
  60        1.234619      3.300575
  61        1.268032      3.325171
  62        1.318170      3.391423
  63        1.390087      3.522939
 
  0.3333333E+00  0.0000000E+00  0.0000000E+00  0.2222222E+00
   1       -6.102826     -5.909752
   2       -5.447099     -5.213487
   3       -4.533123     -4.217717
   4       -4.040080     -3.398338
   5       -3.649971     -3.065231
   6       -3.600645     -2.847489
   7       -3.305845     -2.244195
   8       -3.289288     -2.150152
   9       -3.269053     -1.894624
  10       -3.236842     -1.817033
  11       -3.225550     -1.651996
  12       -3.152657     -1.467266
  13       -2.936194     -1.057221
  14       -2.606747     -0.657215
  15       -2.368935     -0.372045
  16       -2.040312     -0.269273
  17       -1.963644     -0.094292
  18       -1.817881     -0.088394
  19       -1.765478      0.139928
  20       -1.615667      0.184891
  21       -1.573214      0.190971
  22       -1.495612      0.340400
  23       -1.493292      0.350016
  24       -1.437898      0.385349
  25       -1.387303      0.541926
  26       -1.330225      0.595974
  27       -1.326008      0.681881
  28       -1.252342      0.720030
  29       -1.216114      0.807161
  30       -1.088440      0.952313
  31       -1.062090      0.981763
  32       -1.021631      1.037861
  33       -0.910096      1.241724
  34       -0.867210      1.259433
  35       -0.800376      1.331680
  36       -0.644994      1.409371
  37       -0.635462      1.456195
  38       -0.592243      1.545883
  39       -0.570374      1.600783
  40       -0.530322      1.662134
  41       -0.412615      1.724738
  42       -0.412162      1.734594
  43       -0.348393      1.743462
  44       -0.324793      1.950204
  45       -0.319646      1.976344
  46       -0.310092      1.985059
  47       -0.269999      2.016528
  48       -0.214814      2.104038
  49       -0.074620      2.190151
  50        0.006063      2.366477
  51        0.039995      2.369824
  52        0.208716      2.445870
  53        0.229137      2.488188
  54        0.250248      2.515335
  55        0.270263      2.552616
  56        0.272885      2.701470
  57        0.441646      2.794319
  58        0.570282      2.883079
  59        0.618393      2.896730
  60        0.702746      3.051439
  61        0.708135      3.138928
  62        0.809641      3.186551
  63        0.823260      3.196054
 
  0.0000000E+00  0.3333333E+00  0.0000000E+00  0.2222222E+00
   1       -5.134579     -4.889466
   2       -4.574572     -4.264319
   3       -3.758680     -3.353355
   4       -3.079840     -2.247766
   5       -2.858778     -1.705239
   6       -2.834636     -1.347299
   7       -2.795764     -1.328331
   8       -2.701500     -1.269708
   9       -2.695905     -1.254205
  10       -2.631388     -1.172479
  11       -2.621284     -0.987752
  12       -2.495553     -0.939132
  13       -2.474222     -0.879079
  14       -2.468222     -0.854180
  15       -2.410738     -0.828178
  16       -2.368291     -0.722685
  17       -2.318038     -0.660653
  18       -2.183841     -0.659552
  19       -2.170933     -0.583301
  20       -2.155086     -0.519839
  21       -2.110941     -0.438854
  22       -1.982504     -0.417053
  23       -1.952919     -0.362436
  24       -1.916008     -0.315642
  25       -1.810532     -0.059406
  26       -1.752062     -0.036294
  27       -1.731226      0.103588
  28       -1.623293      0.211835
  29       -1.578941      0.352008
  30       -1.460054      0.503493
  31       -1.308776      0.541214
  32       -1.289666      0.636117
  33       -1.221075      0.647997
  34       -1.056696      1.047384
  35       -0.875593      1.297794
  36       -0.859586      1.309596
  37       -0.787094      1.529639
  38       -0.553637      1.532072
  39       -0.524048      1.661801
  40       -0.467406      1.941824
  41       -0.193066      1.969892
  42       -0.165878      2.115127
  43       -0.031182      2.264917
  44        0.035250      2.466905
  45        0.079839      2.599595
  46        0.118416      2.617263
  47        0.164769      2.745405
  48        0.173070      2.754756
  49        0.194559      2.813515
  50        0.206859      2.832502
  51        0.212599      2.863476
  52        0.231855      2.872524
  53        0.245959      2.895234
  54        0.249193      2.959189
  55        0.305100      2.970520
  56        0.330371      2.975602
  57        0.341507      2.977957
  58        0.443450      3.008190
  59        0.445766      3.062023
  60        0.496262      3.071131
  61        0.804427      3.082884
  62        0.809571      3.187854
  63        0.856811      3.264651
 
  0.3333333E+00  0.3333333E+00  0.0000000E+00  0.4444444E+00
   1       -4.417033     -4.035358
   2       -4.158777     -3.580718
   3       -3.782513     -2.953852
   4       -3.386161     -2.225038
   5       -3.377737     -2.148618
   6       -3.343531     -2.139536
   7       -3.136405     -1.934085
   8       -3.092792     -1.726207
   9       -2.927054     -1.534110
  10       -2.787610     -1.329098
  11       -2.692079     -1.143493
  12       -2.635211     -1.138825
  13       -2.306350     -0.692307
  14       -2.264768     -0.586279
  15       -2.220049     -0.572128
  16       -2.201162     -0.545954
  17       -2.138751     -0.491480
  18       -2.130423     -0.407217
  19       -2.106793     -0.384408
  20       -2.099891     -0.283265
  21       -2.043362     -0.244789
  22       -1.981734     -0.101776
  23       -1.887106     -0.091234
  24       -1.821824     -0.027664
  25       -1.681136      0.035852
  26       -1.652334      0.085551
  27       -1.614482      0.095018
  28       -1.566800      0.100790
  29       -1.523676      0.271757
  30       -1.404294      0.316747
  31       -1.203709      0.354011
  32       -1.171712      0.390653
  33       -0.951662      0.801794
  34       -0.889532      0.825651
  35       -0.698755      0.883251
  36       -0.541284      0.913753
  37       -0.398635      1.974399
  38       -0.364080      1.981396
  39       -0.201709      2.174933
  40       -0.130233      2.253468
  41       -0.116024      2.367830
  42       -0.090990      2.424927
  43       -0.009104      2.478770
  44        0.044262      2.550186
  45        0.048013      2.564465
  46        0.080731      2.575717
  47        0.091322      2.591934
  48        0.121758      2.697064
  49        0.155686      2.727836
  50        0.180160      2.736328
  51        0.235773      2.851836
  52        0.253483      2.864247
  53        0.261034      2.935053
  54        0.353749      2.941329
  55        0.439848      2.953697
  56        0.473393      3.035482
  57        0.520266      3.069074
  58        0.571062      3.087500
  59        0.605657      3.134343
  60        0.811013      3.145925
  61        0.899045      3.258331
  62        1.246488      3.499047
  63        1.272996      3.554440
