 running on    1 total cores
 distrk:  each k-point on    1 cores,    1 groups
 distr:  one band on    1 cores,    1 groups
 using from now: INCAR     
 vasp.5.3.3 18Dez12 (build Sep  7 2015 22:32:56) complex                        
  
 POSCAR found type information on POSCAR  Fe
 POSCAR found :  1 types and      12 ions
 LDA part: xc-table for Pade appr. of Perdew
 POSCAR, INCAR and KPOINTS ok, starting setup
 WARNING: small aliasing (wrap around) errors must be expected
 FFT: planning ...
 WAVECAR not read
 entering main loop
       N       E                     dE             d eps       ncg     rms          rms(c)
DAV:   1     0.718820897430E+03    0.71882E+03   -0.32214E+04  1008   0.128E+03
DAV:   2    -0.362439643333E+02   -0.75506E+03   -0.72278E+03  1008   0.362E+02
DAV:   3    -0.992367953185E+02   -0.62993E+02   -0.54662E+02  1172   0.132E+02
DAV:   4    -0.107399124701E+03   -0.81623E+01   -0.72852E+01  1656   0.434E+01
DAV:   5    -0.107863115852E+03   -0.46399E+00   -0.44420E+00  1465   0.972E+00
DAV:   6    -0.107896150098E+03   -0.33034E-01   -0.31093E-01  1657   0.170E+00
DAV:   7    -0.107899795156E+03   -0.36451E-02   -0.34486E-02  1505   0.360E-01
DAV:   8    -0.107900667569E+03   -0.87241E-03   -0.85477E-03  1409   0.905E-02
DAV:   9    -0.107900806692E+03   -0.13912E-03   -0.13821E-03  1018   0.350E-02
DAV:  10    -0.107900840113E+03   -0.33421E-04   -0.33360E-04   811   0.124E-02    0.406E+01
RMM:  11    -0.209208051297E+03   -0.10131E+03   -0.40913E+02  1227   0.134E+02    0.104E+02
RMM:  12    -0.122722908073E+03    0.86485E+02   -0.10705E+02  1017   0.741E+01    0.743E+01
RMM:  13    -0.112483749318E+03    0.10239E+02   -0.12862E+02  1021   0.716E+01    0.527E+01
RMM:  14    -0.973407383485E+02    0.15143E+02   -0.17528E+01  1018   0.323E+01    0.409E+01
RMM:  15    -0.144648669098E+03   -0.47308E+02   -0.28903E+01  1170   0.201E+01    0.736E+01
RMM:  16    -0.102281006130E+03    0.42368E+02   -0.13169E+01  1078   0.175E+01    0.532E+01
RMM:  17    -0.913175236631E+02    0.10963E+02   -0.48923E+00  1074   0.974E+00    0.239E+01
RMM:  18    -0.916706906491E+02   -0.35317E+00   -0.25835E+00  1068   0.831E+00    0.199E+01
RMM:  19    -0.916313043129E+02    0.39386E-01   -0.21903E+00  1026   0.860E+00    0.193E+01
RMM:  20    -0.923359494642E+02   -0.70465E+00   -0.13529E+00  1062   0.576E+00    0.191E+01
RMM:  21    -0.922156241498E+02    0.12033E+00   -0.62672E-01  1048   0.442E+00    0.186E+01
RMM:  22    -0.921342890924E+02    0.81335E-01   -0.19667E-01  1261   0.984E-01    0.188E+01
RMM:  23    -0.922162630763E+02   -0.81974E-01   -0.30661E-02  1207   0.488E-01    0.188E+01
RMM:  24    -0.923308589640E+02   -0.11460E+00   -0.80495E-02  1023   0.112E+00    0.188E+01
RMM:  25    -0.918825620968E+02    0.44830E+00   -0.52544E-01  1017   0.229E+00    0.183E+01
RMM:  26    -0.920789058520E+02   -0.19634E+00   -0.95744E-02  1046   0.989E-01    0.186E+01
RMM:  27    -0.916984777601E+02    0.38043E+00   -0.37368E-01  1028   0.214E+00    0.179E+01
RMM:  28    -0.919152386255E+02   -0.21676E+00   -0.51982E-01  1037   0.206E+00    0.179E+01
RMM:  29    -0.919793512791E+02   -0.64113E-01   -0.68313E-01  1019   0.271E+00    0.163E+01
RMM:  30    -0.919765334425E+02    0.28178E-02   -0.15806E-01  1242   0.758E-01    0.165E+01
RMM:  31    -0.918560381448E+02    0.12050E+00   -0.32558E-01  1031   0.242E+00    0.175E+01
RMM:  32    -0.918932136283E+02   -0.37175E-01   -0.39781E-02  1145   0.587E-01    0.172E+01
RMM:  33    -0.919112630894E+02   -0.18049E-01   -0.90671E-02  1026   0.139E+00    0.174E+01
RMM:  34    -0.918426761028E+02    0.68587E-01   -0.28551E-01  1054   0.185E+00    0.180E+01
RMM:  35    -0.920483581569E+02   -0.20568E+00   -0.12205E-01  1015   0.156E+00    0.171E+01
RMM:  36    -0.922175329507E+02   -0.16917E+00   -0.98571E-02  1077   0.104E+00    0.169E+01
RMM:  37    -0.920855083276E+02    0.13202E+00   -0.34423E-02  1024   0.899E-01    0.174E+01
RMM:  38    -0.919390067035E+02    0.14650E+00   -0.35319E-02  1061   0.731E-01    0.176E+01
RMM:  39    -0.918203115320E+02    0.11870E+00   -0.25958E-02  1129   0.570E-01    0.177E+01
RMM:  40    -0.917761531168E+02    0.44158E-01   -0.88631E-03  1214   0.287E-01    0.178E+01
RMM:  41    -0.920203993275E+02   -0.24425E+00   -0.32764E-02  1025   0.857E-01    0.177E+01
RMM:  42    -0.922033467736E+02   -0.18295E+00   -0.53960E-02  1089   0.848E-01    0.174E+01
RMM:  43    -0.927463409382E+02   -0.54299E+00   -0.29044E-01  1047   0.252E+00    0.159E+01
RMM:  44    -0.928850787749E+02   -0.13874E+00   -0.22623E-01  1094   0.174E+00    0.151E+01
RMM:  45    -0.930119368032E+02   -0.12686E+00   -0.37772E-01  1119   0.226E+00    0.130E+01
RMM:  46    -0.930016190414E+02    0.10318E-01   -0.70881E-02  1250   0.592E-01    0.130E+01
RMM:  47    -0.930833494011E+02   -0.81730E-01   -0.30658E-02  1069   0.815E-01    0.127E+01
RMM:  48    -0.932919330994E+02   -0.20858E+00   -0.56885E-01  1031   0.315E+00    0.121E+01
RMM:  49    -0.936056053783E+02   -0.31367E+00   -0.75120E-01  1092   0.340E+00    0.111E+01
RMM:  50    -0.936366908471E+02   -0.31085E-01   -0.30107E-01  1213   0.160E+00    0.109E+01
RMM:  51    -0.935937828194E+02    0.42908E-01   -0.10475E-01  1114   0.115E+00    0.108E+01
RMM:  52    -0.936053207486E+02   -0.11538E-01   -0.44414E-02  1120   0.805E-01    0.107E+01
RMM:  53    -0.935271134595E+02    0.78207E-01   -0.44559E-01  1037   0.311E+00    0.102E+01
RMM:  54    -0.939714127312E+02   -0.44430E+00   -0.36593E-01  1069   0.241E+00    0.796E+00
RMM:  55    -0.939502389351E+02    0.21174E-01   -0.45438E-01  1075   0.313E+00    0.857E+00
RMM:  56    -0.926573269377E+02    0.12929E+01   -0.13838E+00  1058   0.508E+00    0.155E+01
RMM:  57    -0.929710834868E+02   -0.31376E+00   -0.23945E-01  1162   0.168E+00    0.129E+01
RMM:  58    -0.931990677038E+02   -0.22798E+00   -0.59184E-02  1107   0.878E-01    0.121E+01
RMM:  59    -0.938939776386E+02   -0.69491E+00   -0.39177E-01  1035   0.253E+00    0.844E+00
RMM:  60    -0.942659906349E+02   -0.37201E+00   -0.43453E-01  1099   0.216E+00

 ----------------------------------------------------------------------------- 
|                                                                             |
|           W    W    AA    RRRRR   N    N  II  N    N   GGGG   !!!           |
|           W    W   A  A   R    R  NN   N  II  NN   N  G    G  !!!           |
|           W    W  A    A  R    R  N N  N  II  N N  N  G       !!!           |
|           W WW W  AAAAAA  RRRRR   N  N N  II  N  N N  G  GGG   !            |
|           WW  WW  A    A  R   R   N   NN  II  N   NN  G    G                |
|           W    W  A    A  R    R  N    N  II  N    N   GGGG   !!!           |
|                                                                             |
|      Your highest band is occupied at some k-points! Unless you are         |
|      performing a calculation for an insulator or semiconductor, without    |
|      unoccupied bands, you have included TOO FEW BANDS!! Please increase    |
|      the parameter NBANDS in file INCAR to ensure that the highest band   |
|      is unoccupied at all k-points. It is always recommended to             |
|      include a few unoccupied bands to accelerate the convergence of        |
|      molecular dynamics runs (even for insulators or semiconductors).       |
|      Because the presence of unoccupied bands improves wavefunction         |
|      prediction, and helps to suppress 'band-crossings.'                    |
|                                                                             |
 ----------------------------------------------------------------------------- 

   1 F= -.94265991E+02 E0= -.94266064E+02  d E =-.942660E+02  mag=    27.9182
 curvature:   0.00 expect dE= 0.000E+00 dE for cont linesearch  0.000E+00
 trial: gam= 0.00000 g(F)=  0.387E-02 g(S)=  0.000E+00 ort = 0.000E+00 (trialstep = 0.100E+01)
 search vector abs. value=  0.387E-02
 bond charge predicted
       N       E                     dE             d eps       ncg     rms          rms(c)
DAV:   1    -0.924880920708E+02    0.14059E+01   -0.24059E+00  1439   0.965E+00    0.142E+01
RMM:   2    -0.101109841148E+03   -0.86217E+01   -0.23882E+01  1108   0.193E+01    0.352E+01
RMM:   3    -0.943556954466E+02    0.67541E+01   -0.35354E+00  1026   0.104E+01    0.139E+01
RMM:   4    -0.110781736476E+03   -0.16426E+02   -0.20343E+01  1127   0.226E+01    0.464E+01
RMM:   5    -0.972274329764E+02    0.13554E+02   -0.76361E+00  1063   0.138E+01    0.293E+01
RMM:   6    -0.929108966268E+02    0.43165E+01   -0.50829E+00  1038   0.117E+01    0.125E+01
RMM:   7    -0.925716751768E+02    0.33922E+00   -0.22948E+00  1096   0.613E+00    0.786E+00
RMM:   8    -0.922747519065E+02    0.29692E+00   -0.75108E-01  1078   0.263E+00    0.654E+00
RMM:   9    -0.912117379626E+02    0.10630E+01   -0.30903E+00  1058   0.699E+00    0.999E+00
RMM:  10    -0.917024403371E+02   -0.49070E+00   -0.17779E+00  1064   0.608E+00    0.101E+01
RMM:  11    -0.912757981243E+02    0.42664E+00   -0.10322E+00  1055   0.452E+00    0.825E+00
RMM:  12    -0.906415992662E+02    0.63420E+00   -0.11052E+00  1062   0.320E+00    0.728E+00
RMM:  13    -0.907247609541E+02   -0.83162E-01   -0.47790E-01  1148   0.151E+00    0.690E+00
RMM:  14    -0.906384782730E+02    0.86283E-01   -0.20935E-01  1104   0.116E+00    0.638E+00
RMM:  15    -0.905400168914E+02    0.98461E-01   -0.32461E-01  1036   0.234E+00    0.436E+00
RMM:  16    -0.906275789704E+02   -0.87562E-01   -0.27400E-01  1102   0.176E+00    0.291E+00
RMM:  17    -0.913110408774E+02   -0.68346E+00   -0.22279E-01  1032   0.171E+00    0.231E+00
RMM:  18    -0.919817113479E+02   -0.67067E+00   -0.25066E-01  1048   0.161E+00    0.168E+00
RMM:  19    -0.931727410833E+02   -0.11910E+01   -0.79248E-01  1030   0.260E+00    0.137E+00
RMM:  20    -0.941141353296E+02   -0.94139E+00   -0.91874E-01  1042   0.226E+00    0.110E+00
RMM:  21    -0.945914660684E+02   -0.47733E+00   -0.69614E-01  1085   0.164E+00    0.959E-01
RMM:  22    -0.946881621456E+02   -0.96696E-01   -0.22657E-01  1195   0.748E-01    0.105E+00
RMM:  23    -0.948852098319E+02   -0.19705E+00   -0.11472E-01  1031   0.873E-01    0.119E+00
RMM:  24    -0.952858316524E+02   -0.40062E+00   -0.36535E-01  1046   0.129E+00    0.108E+00
RMM:  25    -0.954619967947E+02   -0.17617E+00   -0.21896E-01  1112   0.763E-01    0.654E-01
RMM:  26    -0.955945661529E+02   -0.13257E+00   -0.12430E-01  1059   0.684E-01    0.694E-01
RMM:  27    -0.956409936504E+02   -0.46427E-01   -0.60797E-02  1124   0.428E-01    0.389E-01
RMM:  28    -0.956574456662E+02   -0.16452E-01   -0.28058E-02  1114   0.286E-01    0.314E-01
RMM:  29    -0.956550253924E+02    0.24203E-02   -0.16837E-02  1113   0.237E-01    0.160E-01
RMM:  30    -0.956700177983E+02   -0.14992E-01   -0.59649E-03  1113   0.137E-01    0.112E-01
RMM:  31    -0.956857170799E+02   -0.15699E-01   -0.34490E-03  1083   0.111E-01    0.131E-01
RMM:  32    -0.957021406628E+02   -0.16424E-01   -0.17727E-03  1039   0.890E-02    0.127E-01
RMM:  33    -0.957255946210E+02   -0.23454E-01   -0.32427E-03   999   0.101E-01    0.125E-01
RMM:  34    -0.957322114446E+02   -0.66168E-02   -0.12373E-03   972   0.634E-02    0.882E-02
RMM:  35    -0.957340736860E+02   -0.18622E-02   -0.80953E-04   879   0.405E-02    0.694E-02
RMM:  36    -0.957345464098E+02   -0.47272E-03   -0.37715E-04   677   0.208E-02    0.647E-02
RMM:  37    -0.957348586827E+02   -0.31227E-03   -0.23004E-04   672   0.207E-02    0.611E-02
RMM:  38    -0.957368094899E+02   -0.19508E-02   -0.25046E-04   771   0.349E-02    0.601E-02
RMM:  39    -0.957381646435E+02   -0.13552E-02   -0.52079E-04   757   0.287E-02    0.437E-02
RMM:  40    -0.957388037318E+02   -0.63909E-03   -0.28182E-04   691   0.245E-02    0.281E-02
RMM:  41    -0.957390303080E+02   -0.22658E-03   -0.30217E-04   647   0.197E-02    0.313E-02
RMM:  42    -0.957390883838E+02   -0.58076E-04   -0.11133E-04   618   0.186E-02    0.301E-02
RMM:  43    -0.957390902314E+02   -0.18476E-05   -0.17287E-04   607   0.143E-02    0.295E-02
RMM:  44    -0.957390934806E+02   -0.32492E-05   -0.88608E-05   603   0.148E-02

 ----------------------------------------------------------------------------- 
|                                                                             |
|           W    W    AA    RRRRR   N    N  II  N    N   GGGG   !!!           |
|           W    W   A  A   R    R  NN   N  II  NN   N  G    G  !!!           |
|           W    W  A    A  R    R  N N  N  II  N N  N  G       !!!           |
|           W WW W  AAAAAA  RRRRR   N  N N  II  N  N N  G  GGG   !            |
|           WW  WW  A    A  R   R   N   NN  II  N   NN  G    G                |
|           W    W  A    A  R    R  N    N  II  N    N   GGGG   !!!           |
|                                                                             |
|      Your highest band is occupied at some k-points! Unless you are         |
|      performing a calculation for an insulator or semiconductor, without    |
|      unoccupied bands, you have included TOO FEW BANDS!! Please increase    |
|      the parameter NBANDS in file INCAR to ensure that the highest band   |
|      is unoccupied at all k-points. It is always recommended to             |
|      include a few unoccupied bands to accelerate the convergence of        |
|      molecular dynamics runs (even for insulators or semiconductors).       |
|      Because the presence of unoccupied bands improves wavefunction         |
|      prediction, and helps to suppress 'band-crossings.'                    |
|                                                                             |
 ----------------------------------------------------------------------------- 

   2 F= -.95739093E+02 E0= -.95740329E+02  d E =-.147310E+01  mag=    27.3184
 trial-energy change:   -1.473103  1 .order   -0.002293   -0.003870   -0.000716
 step:   1.0001(harm=  1.2268)  dis= 0.00805  next Energy=   -95.739094 (dE=-0.147E+01)
 bond charge predicted
       N       E                     dE             d eps       ncg     rms          rms(c)
DAV:   1    -0.957645859972E+02   -0.25496E-01   -0.25498E-01   850   0.324E-02    0.987E-01
RMM:   2    -0.959956168867E+02   -0.23103E+00   -0.59912E-01  1080   0.222E+00    0.583E+00
RMM:   3    -0.957686822176E+02    0.22693E+00   -0.19311E-01  1039   0.166E+00    0.164E+00
RMM:   4    -0.957730629758E+02   -0.43808E-02   -0.16885E-01  1082   0.142E+00    0.132E+00
RMM:   5    -0.957730639978E+02   -0.10220E-05   -0.67625E-02  1100   0.836E-01    0.109E+00
RMM:   6    -0.957656996833E+02    0.73643E-02   -0.14655E-02  1051   0.585E-01    0.544E-01
RMM:   7    -0.957648196941E+02    0.87999E-03   -0.57453E-03  1183   0.159E-01    0.502E-01
RMM:   8    -0.957627252619E+02    0.20944E-02   -0.18361E-03  1058   0.178E-01    0.490E-01
RMM:   9    -0.957590982744E+02    0.36270E-02   -0.31400E-03  1037   0.262E-01    0.486E-01
RMM:  10    -0.957471283713E+02    0.11970E-01   -0.45482E-03  1064   0.242E-01    0.266E-01
RMM:  11    -0.957423427118E+02    0.47857E-02   -0.20672E-03  1079   0.188E-01    0.237E-01
RMM:  12    -0.957424582756E+02   -0.11556E-03   -0.15700E-03  1040   0.209E-01    0.197E-01
RMM:  13    -0.957455559154E+02   -0.30976E-02   -0.65658E-04  1046   0.109E-01    0.142E-01
RMM:  14    -0.957520892366E+02   -0.65333E-02   -0.92641E-04  1019   0.939E-02    0.104E-01
RMM:  15    -0.957586751530E+02   -0.65859E-02   -0.11050E-03  1004   0.843E-02    0.105E-01
RMM:  16    -0.957649286063E+02   -0.62535E-02   -0.15568E-03   984   0.782E-02    0.713E-02
RMM:  17    -0.957673851555E+02   -0.24565E-02   -0.10830E-03   966   0.573E-02    0.403E-02
RMM:  18    -0.957686097846E+02   -0.12246E-02   -0.97199E-04   889   0.399E-02    0.215E-02
RMM:  19    -0.957688390379E+02   -0.22925E-03   -0.24221E-04   750   0.232E-02    0.210E-02
RMM:  20    -0.957688378111E+02    0.12268E-05   -0.13409E-05   578   0.130E-02

 ----------------------------------------------------------------------------- 
|                                                                             |
|           W    W    AA    RRRRR   N    N  II  N    N   GGGG   !!!           |
|           W    W   A  A   R    R  NN   N  II  NN   N  G    G  !!!           |
|           W    W  A    A  R    R  N N  N  II  N N  N  G       !!!           |
|           W WW W  AAAAAA  RRRRR   N  N N  II  N  N N  G  GGG   !            |
|           WW  WW  A    A  R   R   N   NN  II  N   NN  G    G                |
|           W    W  A    A  R    R  N    N  II  N    N   GGGG   !!!           |
|                                                                             |
|      Your highest band is occupied at some k-points! Unless you are         |
|      performing a calculation for an insulator or semiconductor, without    |
|      unoccupied bands, you have included TOO FEW BANDS!! Please increase    |
|      the parameter NBANDS in file INCAR to ensure that the highest band   |
|      is unoccupied at all k-points. It is always recommended to             |
|      include a few unoccupied bands to accelerate the convergence of        |
|      molecular dynamics runs (even for insulators or semiconductors).       |
|      Because the presence of unoccupied bands improves wavefunction         |
|      prediction, and helps to suppress 'band-crossings.'                    |
|                                                                             |
 ----------------------------------------------------------------------------- 

   3 F= -.95768838E+02 E0= -.95769081E+02  d E =-.150285E+01  mag=    27.5553
 curvature:  -0.00 expect dE=-0.111E-05 dE for cont linesearch -0.494E-06
 ZBRENT: increasing intervall
 opt :   1.0002  next Energy=   -95.768838 (dE=-0.150E+01)
 bond charge predicted
       N       E                     dE             d eps       ncg     rms          rms(c)
DAV:   1    -0.957688975592E+02   -0.58521E-04   -0.45820E-05   878   0.137E-02    0.228E-02
RMM:   2    -0.957691384809E+02   -0.24092E-03   -0.66140E-04   920   0.528E-02    0.185E-01
RMM:   3    -0.957688461927E+02    0.29229E-03   -0.28050E-04   763   0.505E-02    0.456E-02
RMM:   4    -0.957688425112E+02    0.36814E-05   -0.75488E-05   687   0.356E-02

 ----------------------------------------------------------------------------- 
|                                                                             |
|           W    W    AA    RRRRR   N    N  II  N    N   GGGG   !!!           |
|           W    W   A  A   R    R  NN   N  II  NN   N  G    G  !!!           |
|           W    W  A    A  R    R  N N  N  II  N N  N  G       !!!           |
|           W WW W  AAAAAA  RRRRR   N  N N  II  N  N N  G  GGG   !            |
|           WW  WW  A    A  R   R   N   NN  II  N   NN  G    G                |
|           W    W  A    A  R    R  N    N  II  N    N   GGGG   !!!           |
|                                                                             |
|      Your highest band is occupied at some k-points! Unless you are         |
|      performing a calculation for an insulator or semiconductor, without    |
|      unoccupied bands, you have included TOO FEW BANDS!! Please increase    |
|      the parameter NBANDS in file INCAR to ensure that the highest band   |
|      is unoccupied at all k-points. It is always recommended to             |
|      include a few unoccupied bands to accelerate the convergence of        |
|      molecular dynamics runs (even for insulators or semiconductors).       |
|      Because the presence of unoccupied bands improves wavefunction         |
|      prediction, and helps to suppress 'band-crossings.'                    |
|                                                                             |
 ----------------------------------------------------------------------------- 

   4 F= -.95768843E+02 E0= -.95769089E+02  d E =-.150285E+01  mag=    27.5542
 curvature:  -0.00 expect dE=-0.127E-05 dE for cont linesearch -0.561E-06
 ZBRENT: increasing intervall
 opt :   1.0006  next Energy=   -95.768843 (dE=-0.150E+01)
 bond charge predicted
       N       E                     dE             d eps       ncg     rms          rms(c)
DAV:   1    -0.957688548258E+02   -0.86331E-05   -0.10660E-04   724   0.962E-02    0.231E-02
RMM:   2    -0.957690189632E+02   -0.16414E-03   -0.17423E-04   910   0.678E-02    0.113E-01
RMM:   3    -0.957689429815E+02    0.75982E-04   -0.80173E-05   748   0.476E-02    0.506E-02
RMM:   4    -0.957689369163E+02    0.60652E-05   -0.25327E-05   558   0.234E-02

 ----------------------------------------------------------------------------- 
|                                                                             |
|           W    W    AA    RRRRR   N    N  II  N    N   GGGG   !!!           |
|           W    W   A  A   R    R  NN   N  II  NN   N  G    G  !!!           |
|           W    W  A    A  R    R  N N  N  II  N N  N  G       !!!           |
|           W WW W  AAAAAA  RRRRR   N  N N  II  N  N N  G  GGG   !            |
|           WW  WW  A    A  R   R   N   NN  II  N   NN  G    G                |
|           W    W  A    A  R    R  N    N  II  N    N   GGGG   !!!           |
|                                                                             |
|      Your highest band is occupied at some k-points! Unless you are         |
|      performing a calculation for an insulator or semiconductor, without    |
|      unoccupied bands, you have included TOO FEW BANDS!! Please increase    |
|      the parameter NBANDS in file INCAR to ensure that the highest band   |
|      is unoccupied at all k-points. It is always recommended to             |
|      include a few unoccupied bands to accelerate the convergence of        |
|      molecular dynamics runs (even for insulators or semiconductors).       |
|      Because the presence of unoccupied bands improves wavefunction         |
|      prediction, and helps to suppress 'band-crossings.'                    |
|                                                                             |
 ----------------------------------------------------------------------------- 

   5 F= -.95768937E+02 E0= -.95769197E+02  d E =-.150295E+01  mag=    27.5535
 curvature:  -0.00 expect dE=-0.152E-05 dE for cont linesearch -0.678E-06
 ZBRENT: increasing intervall
 opt :   1.0012  next Energy=   -95.768938 (dE=-0.150E+01)
 bond charge predicted
       N       E                     dE             d eps       ncg     rms          rms(c)
DAV:   1    -0.957689618348E+02   -0.18853E-04   -0.13649E-05   588   0.360E-02    0.169E-02
RMM:   2    -0.957690752689E+02   -0.11343E-03   -0.94098E-05   732   0.418E-02    0.745E-02
RMM:   3    -0.957690455216E+02    0.29747E-04   -0.33415E-05   585   0.377E-02    0.239E-02
RMM:   4    -0.957690498969E+02   -0.43753E-05   -0.13293E-05   521   0.114E-02

 ----------------------------------------------------------------------------- 
|                                                                             |
|           W    W    AA    RRRRR   N    N  II  N    N   GGGG   !!!           |
|           W    W   A  A   R    R  NN   N  II  NN   N  G    G  !!!           |
|           W    W  A    A  R    R  N N  N  II  N N  N  G       !!!           |
|           W WW W  AAAAAA  RRRRR   N  N N  II  N  N N  G  GGG   !            |
|           WW  WW  A    A  R   R   N   NN  II  N   NN  G    G                |
|           W    W  A    A  R    R  N    N  II  N    N   GGGG   !!!           |
|                                                                             |
|      Your highest band is occupied at some k-points! Unless you are         |
|      performing a calculation for an insulator or semiconductor, without    |
|      unoccupied bands, you have included TOO FEW BANDS!! Please increase    |
|      the parameter NBANDS in file INCAR to ensure that the highest band   |
|      is unoccupied at all k-points. It is always recommended to             |
|      include a few unoccupied bands to accelerate the convergence of        |
|      molecular dynamics runs (even for insulators or semiconductors).       |
|      Because the presence of unoccupied bands improves wavefunction         |
|      prediction, and helps to suppress 'band-crossings.'                    |
|                                                                             |
 ----------------------------------------------------------------------------- 

   6 F= -.95769050E+02 E0= -.95769305E+02  d E =-.150306E+01  mag=    27.5527
 curvature:  -0.00 expect dE=-0.303E-05 dE for cont linesearch -0.136E-05
 ZBRENT: increasing intervall
 opt :   1.0025  next Energy=   -95.769053 (dE=-0.150E+01)
 bond charge predicted
       N       E                     dE             d eps       ncg     rms          rms(c)
DAV:   1    -0.957691083800E+02   -0.62858E-04   -0.78326E-06   615   0.240E-02    0.129E-02
RMM:   2    -0.957691953089E+02   -0.86929E-04   -0.65923E-05   579   0.261E-02    0.610E-02
RMM:   3    -0.957691753568E+02    0.19952E-04   -0.40693E-05   540   0.246E-02    0.160E-02
RMM:   4    -0.957691837103E+02   -0.83535E-05   -0.30343E-06   502   0.855E-03

 ----------------------------------------------------------------------------- 
|                                                                             |
|           W    W    AA    RRRRR   N    N  II  N    N   GGGG   !!!           |
|           W    W   A  A   R    R  NN   N  II  NN   N  G    G  !!!           |
|           W    W  A    A  R    R  N N  N  II  N N  N  G       !!!           |
|           W WW W  AAAAAA  RRRRR   N  N N  II  N  N N  G  GGG   !            |
|           WW  WW  A    A  R   R   N   NN  II  N   NN  G    G                |
|           W    W  A    A  R    R  N    N  II  N    N   GGGG   !!!           |
|                                                                             |
|      Your highest band is occupied at some k-points! Unless you are         |
|      performing a calculation for an insulator or semiconductor, without    |
|      unoccupied bands, you have included TOO FEW BANDS!! Please increase    |
|      the parameter NBANDS in file INCAR to ensure that the highest band   |
|      is unoccupied at all k-points. It is always recommended to             |
|      include a few unoccupied bands to accelerate the convergence of        |
|      molecular dynamics runs (even for insulators or semiconductors).       |
|      Because the presence of unoccupied bands improves wavefunction         |
|      prediction, and helps to suppress 'band-crossings.'                    |
|                                                                             |
 ----------------------------------------------------------------------------- 

   7 F= -.95769184E+02 E0= -.95769441E+02  d E =-.150319E+01  mag=    27.5520
 curvature:  -0.00 expect dE=-0.602E-05 dE for cont linesearch -0.269E-05
 ZBRENT: increasing intervall
 opt :   1.0051  next Energy=   -95.769189 (dE=-0.150E+01)
 bond charge predicted
       N       E                     dE             d eps       ncg     rms          rms(c)
DAV:   1    -0.957692177112E+02   -0.42354E-04   -0.54765E-06   525   0.174E-02    0.118E-02
RMM:   2    -0.957692696925E+02   -0.51981E-04   -0.14417E-05   553   0.249E-02    0.297E-02
RMM:   3    -0.957692754006E+02   -0.57081E-05   -0.65652E-06   507   0.212E-02    0.108E-02
RMM:   4    -0.957692959011E+02   -0.20501E-04   -0.22728E-06   504   0.869E-03    0.146E-02
RMM:   5    -0.957693123374E+02   -0.16436E-04   -0.14043E-06   462   0.665E-03    0.110E-02
RMM:   6    -0.957693638167E+02   -0.51479E-04   -0.37380E-06   509   0.858E-03    0.119E-02
RMM:   7    -0.957694640668E+02   -0.10025E-03   -0.11244E-05   539   0.103E-02    0.825E-03
RMM:   8    -0.957695028266E+02   -0.38760E-04   -0.66178E-06   521   0.109E-02    0.642E-03
RMM:   9    -0.957695505184E+02   -0.47692E-04   -0.95800E-06   521   0.853E-03    0.393E-03
RMM:  10    -0.957695713015E+02   -0.20783E-04   -0.56992E-06   397   0.584E-03    0.324E-03
RMM:  11    -0.957695788027E+02   -0.75012E-05   -0.52513E-06   390   0.609E-03

 ----------------------------------------------------------------------------- 
|                                                                             |
|           W    W    AA    RRRRR   N    N  II  N    N   GGGG   !!!           |
|           W    W   A  A   R    R  NN   N  II  NN   N  G    G  !!!           |
|           W    W  A    A  R    R  N N  N  II  N N  N  G       !!!           |
|           W WW W  AAAAAA  RRRRR   N  N N  II  N  N N  G  GGG   !            |
|           WW  WW  A    A  R   R   N   NN  II  N   NN  G    G                |
|           W    W  A    A  R    R  N    N  II  N    N   GGGG   !!!           |
|                                                                             |
|      Your highest band is occupied at some k-points! Unless you are         |
|      performing a calculation for an insulator or semiconductor, without    |
|      unoccupied bands, you have included TOO FEW BANDS!! Please increase    |
|      the parameter NBANDS in file INCAR to ensure that the highest band   |
|      is unoccupied at all k-points. It is always recommended to             |
|      include a few unoccupied bands to accelerate the convergence of        |
|      molecular dynamics runs (even for insulators or semiconductors).       |
|      Because the presence of unoccupied bands improves wavefunction         |
|      prediction, and helps to suppress 'band-crossings.'                    |
|                                                                             |
 ----------------------------------------------------------------------------- 

   8 F= -.95769579E+02 E0= -.95769837E+02  d E =-.150359E+01  mag=    27.5491
 curvature:  -0.00 expect dE=-0.121E-04 dE for cont linesearch -0.542E-05
 ZBRENT: increasing intervall
 opt :   1.0103  next Energy=   -95.769590 (dE=-0.150E+01)
 bond charge predicted
       N       E                     dE             d eps       ncg     rms          rms(c)
DAV:   1    -0.957695957799E+02   -0.24478E-04   -0.22166E-05   886   0.179E-02    0.345E-03
RMM:   2    -0.957695985339E+02   -0.27540E-05   -0.25358E-06   505   0.107E-02    0.124E-02
RMM:   3    -0.957695981381E+02    0.39581E-06   -0.14079E-06   496   0.907E-03    0.671E-03
RMM:   4    -0.957695980701E+02    0.67975E-07   -0.48874E-07   379   0.425E-03

 ----------------------------------------------------------------------------- 
|                                                                             |
|           W    W    AA    RRRRR   N    N  II  N    N   GGGG   !!!           |
|           W    W   A  A   R    R  NN   N  II  NN   N  G    G  !!!           |
|           W    W  A    A  R    R  N N  N  II  N N  N  G       !!!           |
|           W WW W  AAAAAA  RRRRR   N  N N  II  N  N N  G  GGG   !            |
|           WW  WW  A    A  R   R   N   NN  II  N   NN  G    G                |
|           W    W  A    A  R    R  N    N  II  N    N   GGGG   !!!           |
|                                                                             |
|      Your highest band is occupied at some k-points! Unless you are         |
|      performing a calculation for an insulator or semiconductor, without    |
|      unoccupied bands, you have included TOO FEW BANDS!! Please increase    |
|      the parameter NBANDS in file INCAR to ensure that the highest band   |
|      is unoccupied at all k-points. It is always recommended to             |
|      include a few unoccupied bands to accelerate the convergence of        |
|      molecular dynamics runs (even for insulators or semiconductors).       |
|      Because the presence of unoccupied bands improves wavefunction         |
|      prediction, and helps to suppress 'band-crossings.'                    |
|                                                                             |
 ----------------------------------------------------------------------------- 

   9 F= -.95769598E+02 E0= -.95769858E+02  d E =-.150361E+01  mag=    27.5491
 curvature:  -0.01 expect dE=-0.241E-04 dE for cont linesearch -0.107E-04
 ZBRENT: increasing intervall
 opt :   1.0207  next Energy=   -95.769619 (dE=-0.150E+01)
 bond charge predicted
       N       E                     dE             d eps       ncg     rms          rms(c)
DAV:   1    -0.957696195456E+02   -0.21408E-04   -0.80503E-05  1000   0.341E-02    0.573E-03
RMM:   2    -0.957696216320E+02   -0.20863E-05   -0.36461E-06   505   0.133E-02    0.131E-02
RMM:   3    -0.957696215723E+02    0.59715E-07   -0.29282E-06   508   0.140E-02    0.102E-02
RMM:   4    -0.957696212822E+02    0.29008E-06   -0.87458E-07   480   0.596E-03

 ----------------------------------------------------------------------------- 
|                                                                             |
|           W    W    AA    RRRRR   N    N  II  N    N   GGGG   !!!           |
|           W    W   A  A   R    R  NN   N  II  NN   N  G    G  !!!           |
|           W    W  A    A  R    R  N N  N  II  N N  N  G       !!!           |
|           W WW W  AAAAAA  RRRRR   N  N N  II  N  N N  G  GGG   !            |
|           WW  WW  A    A  R   R   N   NN  II  N   NN  G    G                |
|           W    W  A    A  R    R  N    N  II  N    N   GGGG   !!!           |
|                                                                             |
|      Your highest band is occupied at some k-points! Unless you are         |
|      performing a calculation for an insulator or semiconductor, without    |
|      unoccupied bands, you have included TOO FEW BANDS!! Please increase    |
|      the parameter NBANDS in file INCAR to ensure that the highest band   |
|      is unoccupied at all k-points. It is always recommended to             |
|      include a few unoccupied bands to accelerate the convergence of        |
|      molecular dynamics runs (even for insulators or semiconductors).       |
|      Because the presence of unoccupied bands improves wavefunction         |
|      prediction, and helps to suppress 'band-crossings.'                    |
|                                                                             |
 ----------------------------------------------------------------------------- 

  10 F= -.95769621E+02 E0= -.95769879E+02  d E =-.150363E+01  mag=    27.5491
 curvature:  -0.02 expect dE=-0.473E-04 dE for cont linesearch -0.209E-04
 ZBRENT: increasing intervall
 opt :   1.0414  next Energy=   -95.769663 (dE=-0.150E+01)
 bond charge predicted
       N       E                     dE             d eps       ncg     rms          rms(c)
DAV:   1    -0.957696618276E+02   -0.40255E-04   -0.32028E-04  1008   0.693E-02    0.113E-02
RMM:   2    -0.957696676786E+02   -0.58510E-05   -0.17468E-05   554   0.262E-02    0.274E-02
RMM:   3    -0.957696655490E+02    0.21297E-05   -0.10899E-05   533   0.264E-02    0.164E-02
RMM:   4    -0.957696668397E+02   -0.12907E-05   -0.49523E-06   521   0.125E-02

 ----------------------------------------------------------------------------- 
|                                                                             |
|           W    W    AA    RRRRR   N    N  II  N    N   GGGG   !!!           |
|           W    W   A  A   R    R  NN   N  II  NN   N  G    G  !!!           |
|           W    W  A    A  R    R  N N  N  II  N N  N  G       !!!           |
|           W WW W  AAAAAA  RRRRR   N  N N  II  N  N N  G  GGG   !            |
|           WW  WW  A    A  R   R   N   NN  II  N   NN  G    G                |
|           W    W  A    A  R    R  N    N  II  N    N   GGGG   !!!           |
|                                                                             |
|      Your highest band is occupied at some k-points! Unless you are         |
|      performing a calculation for an insulator or semiconductor, without    |
|      unoccupied bands, you have included TOO FEW BANDS!! Please increase    |
|      the parameter NBANDS in file INCAR to ensure that the highest band   |
|      is unoccupied at all k-points. It is always recommended to             |
|      include a few unoccupied bands to accelerate the convergence of        |
|      molecular dynamics runs (even for insulators or semiconductors).       |
|      Because the presence of unoccupied bands improves wavefunction         |
|      prediction, and helps to suppress 'band-crossings.'                    |
|                                                                             |
 ----------------------------------------------------------------------------- 

  11 F= -.95769667E+02 E0= -.95769927E+02  d E =-.150368E+01  mag=    27.5491
 curvature:  -0.04 expect dE=-0.927E-04 dE for cont linesearch -0.402E-04
 ZBRENT: increasing intervall
 opt :   1.0829  next Energy=   -95.769748 (dE=-0.150E+01)
 bond charge predicted
       N       E                     dE             d eps       ncg     rms          rms(c)
DAV:   1    -0.957697390587E+02   -0.73510E-04   -0.12935E-03  1008   0.144E-01    0.234E-02
RMM:   2    -0.957697781858E+02   -0.39127E-04   -0.12526E-04   914   0.571E-02    0.685E-02
RMM:   3    -0.957697641682E+02    0.14018E-04   -0.82539E-05   640   0.408E-02    0.510E-02
RMM:   4    -0.957697485059E+02    0.15662E-04   -0.40009E-05   616   0.323E-02    0.261E-02
RMM:   5    -0.957697454959E+02    0.30100E-05   -0.61273E-06   513   0.210E-02

 ----------------------------------------------------------------------------- 
|                                                                             |
|           W    W    AA    RRRRR   N    N  II  N    N   GGGG   !!!           |
|           W    W   A  A   R    R  NN   N  II  NN   N  G    G  !!!           |
|           W    W  A    A  R    R  N N  N  II  N N  N  G       !!!           |
|           W WW W  AAAAAA  RRRRR   N  N N  II  N  N N  G  GGG   !            |
|           WW  WW  A    A  R   R   N   NN  II  N   NN  G    G                |
|           W    W  A    A  R    R  N    N  II  N    N   GGGG   !!!           |
|                                                                             |
|      Your highest band is occupied at some k-points! Unless you are         |
|      performing a calculation for an insulator or semiconductor, without    |
|      unoccupied bands, you have included TOO FEW BANDS!! Please increase    |
|      the parameter NBANDS in file INCAR to ensure that the highest band   |
|      is unoccupied at all k-points. It is always recommended to             |
|      include a few unoccupied bands to accelerate the convergence of        |
|      molecular dynamics runs (even for insulators or semiconductors).       |
|      Because the presence of unoccupied bands improves wavefunction         |
|      prediction, and helps to suppress 'band-crossings.'                    |
|                                                                             |
 ----------------------------------------------------------------------------- 

  12 F= -.95769745E+02 E0= -.95769998E+02  d E =-.150375E+01  mag=    27.5492
 curvature:  -0.08 expect dE=-0.178E-03 dE for cont linesearch -0.720E-04
 ZBRENT: increasing intervall
 opt :   1.1659  next Energy=   -95.769893 (dE=-0.150E+01)
 bond charge predicted
       N       E                     dE             d eps       ncg     rms          rms(c)
DAV:   1    -0.957698703134E+02   -0.12181E-03   -0.50704E-03  1008   0.266E-01    0.446E-02
RMM:   2    -0.957699717579E+02   -0.10144E-03   -0.35099E-04  1040   0.935E-02    0.112E-01
RMM:   3    -0.957699184184E+02    0.53340E-04   -0.20019E-04   980   0.786E-02    0.622E-02
RMM:   4    -0.957699548804E+02   -0.36462E-04   -0.15680E-04   843   0.472E-02    0.868E-02
RMM:   5    -0.957698965675E+02    0.58313E-04   -0.36955E-05   586   0.362E-02    0.292E-02
RMM:   6    -0.957698927367E+02    0.38308E-05   -0.11830E-05   530   0.223E-02

 ----------------------------------------------------------------------------- 
|                                                                             |
|           W    W    AA    RRRRR   N    N  II  N    N   GGGG   !!!           |
|           W    W   A  A   R    R  NN   N  II  NN   N  G    G  !!!           |
|           W    W  A    A  R    R  N N  N  II  N N  N  G       !!!           |
|           W WW W  AAAAAA  RRRRR   N  N N  II  N  N N  G  GGG   !            |
|           WW  WW  A    A  R   R   N   NN  II  N   NN  G    G                |
|           W    W  A    A  R    R  N    N  II  N    N   GGGG   !!!           |
|                                                                             |
|      Your highest band is occupied at some k-points! Unless you are         |
|      performing a calculation for an insulator or semiconductor, without    |
|      unoccupied bands, you have included TOO FEW BANDS!! Please increase    |
|      the parameter NBANDS in file INCAR to ensure that the highest band   |
|      is unoccupied at all k-points. It is always recommended to             |
|      include a few unoccupied bands to accelerate the convergence of        |
|      molecular dynamics runs (even for insulators or semiconductors).       |
|      Because the presence of unoccupied bands improves wavefunction         |
|      prediction, and helps to suppress 'band-crossings.'                    |
|                                                                             |
 ----------------------------------------------------------------------------- 

  13 F= -.95769893E+02 E0= -.95770152E+02  d E =-.150390E+01  mag=    27.5495
 curvature:  -0.16 expect dE=-0.330E-03 dE for cont linesearch -0.122E-03
 ZBRENT: increasing intervall
 opt :   1.3319  next Energy=   -95.770150 (dE=-0.150E+01)
 bond charge predicted
       N       E                     dE             d eps       ncg     rms          rms(c)
DAV:   1    -0.957700384530E+02   -0.14189E-03   -0.20183E-02  1008   0.523E-01    0.859E-02
RMM:   2    -0.957702921465E+02   -0.25369E-03   -0.88893E-04  1060   0.164E-01    0.168E-01
RMM:   3    -0.957702492107E+02    0.42936E-04   -0.71834E-04  1033   0.143E-01    0.131E-01
RMM:   4    -0.957702123597E+02    0.36851E-04   -0.21095E-04   979   0.739E-02    0.100E-01
RMM:   5    -0.957701470133E+02    0.65346E-04   -0.62781E-05   652   0.412E-02    0.444E-02
RMM:   6    -0.957701350064E+02    0.12007E-04   -0.25392E-05   576   0.289E-02    0.167E-02
RMM:   7    -0.957701328637E+02    0.21427E-05   -0.11066E-05   539   0.143E-02

 ----------------------------------------------------------------------------- 
|                                                                             |
|           W    W    AA    RRRRR   N    N  II  N    N   GGGG   !!!           |
|           W    W   A  A   R    R  NN   N  II  NN   N  G    G  !!!           |
|           W    W  A    A  R    R  N N  N  II  N N  N  G       !!!           |
|           W WW W  AAAAAA  RRRRR   N  N N  II  N  N N  G  GGG   !            |
|           WW  WW  A    A  R   R   N   NN  II  N   NN  G    G                |
|           W    W  A    A  R    R  N    N  II  N    N   GGGG   !!!           |
|                                                                             |
|      Your highest band is occupied at some k-points! Unless you are         |
|      performing a calculation for an insulator or semiconductor, without    |
|      unoccupied bands, you have included TOO FEW BANDS!! Please increase    |
|      the parameter NBANDS in file INCAR to ensure that the highest band   |
|      is unoccupied at all k-points. It is always recommended to             |
|      include a few unoccupied bands to accelerate the convergence of        |
|      molecular dynamics runs (even for insulators or semiconductors).       |
|      Because the presence of unoccupied bands improves wavefunction         |
|      prediction, and helps to suppress 'band-crossings.'                    |
|                                                                             |
 ----------------------------------------------------------------------------- 

  14 F= -.95770133E+02 E0= -.95770384E+02  d E =-.150414E+01  mag=    27.5503
 curvature:  -0.34 expect dE=-0.565E-03 dE for cont linesearch -0.141E-03
 ZBRENT: increasing intervall
 opt :   1.6638  next Energy=   -95.770407 (dE=-0.150E+01)
 bond charge predicted
       N       E                     dE             d eps       ncg     rms          rms(c)
DAV:   1    -0.957700176472E+02    0.11736E-03   -0.80780E-02  1008   0.105E+00    0.172E-01
RMM:   2    -0.957710563530E+02   -0.10387E-02   -0.36184E-03  1068   0.326E-01    0.336E-01
RMM:   3    -0.957708865436E+02    0.16981E-03   -0.30664E-03  1039   0.291E-01    0.258E-01
RMM:   4    -0.957707516593E+02    0.13488E-03   -0.10409E-03  1051   0.156E-01    0.210E-01
RMM:   5    -0.957704744532E+02    0.27721E-03   -0.29549E-04  1006   0.887E-02    0.968E-02
RMM:   6    -0.957704120216E+02    0.62432E-04   -0.13082E-04   864   0.551E-02    0.317E-02
RMM:   7    -0.957704031193E+02    0.89023E-05   -0.25280E-05   605   0.183E-02

 ----------------------------------------------------------------------------- 
|                                                                             |
|           W    W    AA    RRRRR   N    N  II  N    N   GGGG   !!!           |
|           W    W   A  A   R    R  NN   N  II  NN   N  G    G  !!!           |
|           W    W  A    A  R    R  N N  N  II  N N  N  G       !!!           |
|           W WW W  AAAAAA  RRRRR   N  N N  II  N  N N  G  GGG   !            |
|           WW  WW  A    A  R   R   N   NN  II  N   NN  G    G                |
|           W    W  A    A  R    R  N    N  II  N    N   GGGG   !!!           |
|                                                                             |
|      Your highest band is occupied at some k-points! Unless you are         |
|      performing a calculation for an insulator or semiconductor, without    |
|      unoccupied bands, you have included TOO FEW BANDS!! Please increase    |
|      the parameter NBANDS in file INCAR to ensure that the highest band   |
|      is unoccupied at all k-points. It is always recommended to             |
|      include a few unoccupied bands to accelerate the convergence of        |
|      molecular dynamics runs (even for insulators or semiconductors).       |
|      Because the presence of unoccupied bands improves wavefunction         |
|      prediction, and helps to suppress 'band-crossings.'                    |
|                                                                             |
 ----------------------------------------------------------------------------- 

  15 F= -.95770403E+02 E0= -.95770654E+02  d E =-.150441E+01  mag=    27.5515
 curvature:  -0.65 expect dE=-0.802E-03 dE for cont linesearch -0.355E-04
 ZBRENT: increasing intervall
 opt :   2.3278  next Energy=   -95.770167 (dE=-0.150E+01)
 bond charge predicted
       N       E                     dE             d eps       ncg     rms          rms(c)
DAV:   1    -0.957685468987E+02    0.18651E-02   -0.32313E-01  1008   0.210E+00    0.344E-01
RMM:   2    -0.957729472248E+02   -0.44003E-02   -0.15010E-02  1068   0.666E-01    0.693E-01
RMM:   3    -0.957715850020E+02    0.13622E-02   -0.11399E-02  1037   0.590E-01    0.460E-01
RMM:   4    -0.957705295423E+02    0.10555E-02   -0.28952E-03  1048   0.294E-01    0.260E-01
RMM:   5    -0.957701711574E+02    0.35838E-03   -0.78069E-04  1024   0.172E-01    0.102E-01
RMM:   6    -0.957702043196E+02   -0.33162E-04   -0.51059E-04  1023   0.616E-02    0.121E-01
RMM:   7    -0.957700999112E+02    0.10441E-03   -0.14799E-04   856   0.498E-02    0.512E-02
RMM:   8    -0.957700974480E+02    0.24632E-05   -0.94764E-05   864   0.584E-02

 ----------------------------------------------------------------------------- 
|                                                                             |
|           W    W    AA    RRRRR   N    N  II  N    N   GGGG   !!!           |
|           W    W   A  A   R    R  NN   N  II  NN   N  G    G  !!!           |
|           W    W  A    A  R    R  N N  N  II  N N  N  G       !!!           |
|           W WW W  AAAAAA  RRRRR   N  N N  II  N  N N  G  GGG   !            |
|           WW  WW  A    A  R   R   N   NN  II  N   NN  G    G                |
|           W    W  A    A  R    R  N    N  II  N    N   GGGG   !!!           |
|                                                                             |
|      Your highest band is occupied at some k-points! Unless you are         |
|      performing a calculation for an insulator or semiconductor, without    |
|      unoccupied bands, you have included TOO FEW BANDS!! Please increase    |
|      the parameter NBANDS in file INCAR to ensure that the highest band   |
|      is unoccupied at all k-points. It is always recommended to             |
|      include a few unoccupied bands to accelerate the convergence of        |
|      molecular dynamics runs (even for insulators or semiconductors).       |
|      Because the presence of unoccupied bands improves wavefunction         |
|      prediction, and helps to suppress 'band-crossings.'                    |
|                                                                             |
 ----------------------------------------------------------------------------- 

  16 F= -.95770097E+02 E0= -.95770345E+02  d E =-.150411E+01  mag=    27.5536
 curvature:   4.36 expect dE= 0.666E-02 dE for cont linesearch  0.177E-02
 ZBRENT: bracketing found
 ZBRENT: interpolating
 opt :   1.8414  next Energy=   -95.770444 (dE=-0.150E+01)
 bond charge predicted
       N       E                     dE             d eps       ncg     rms          rms(c)
DAV:   1    -0.957695463116E+02    0.55360E-03   -0.17380E-01  1008   0.153E+00    0.251E-01
RMM:   2    -0.957722028350E+02   -0.26565E-02   -0.87154E-03  1059   0.516E-01    0.516E-01
RMM:   3    -0.957713150131E+02    0.88782E-03   -0.57069E-03  1035   0.429E-01    0.395E-01
RMM:   4    -0.957723397918E+02   -0.10248E-02   -0.36623E-03  1079   0.235E-01    0.497E-01
RMM:   5    -0.957705545824E+02    0.17852E-02   -0.95349E-04  1025   0.159E-01    0.156E-01
RMM:   6    -0.957704269706E+02    0.12761E-03   -0.41030E-04  1027   0.110E-01    0.535E-02
RMM:   7    -0.957704513578E+02   -0.24387E-04   -0.25358E-04   912   0.363E-02    0.414E-02
RMM:   8    -0.957704630424E+02   -0.11685E-04   -0.96552E-05   837   0.514E-02    0.499E-02
RMM:   9    -0.957704499693E+02    0.13073E-04   -0.28030E-05   598   0.378E-02    0.169E-02
RMM:  10    -0.957704490697E+02    0.89954E-06   -0.18827E-05   562   0.179E-02

 ----------------------------------------------------------------------------- 
|                                                                             |
|           W    W    AA    RRRRR   N    N  II  N    N   GGGG   !!!           |
|           W    W   A  A   R    R  NN   N  II  NN   N  G    G  !!!           |
|           W    W  A    A  R    R  N N  N  II  N N  N  G       !!!           |
|           W WW W  AAAAAA  RRRRR   N  N N  II  N  N N  G  GGG   !            |
|           WW  WW  A    A  R   R   N   NN  II  N   NN  G    G                |
|           W    W  A    A  R    R  N    N  II  N    N   GGGG   !!!           |
|                                                                             |
|      Your highest band is occupied at some k-points! Unless you are         |
|      performing a calculation for an insulator or semiconductor, without    |
|      unoccupied bands, you have included TOO FEW BANDS!! Please increase    |
|      the parameter NBANDS in file INCAR to ensure that the highest band   |
|      is unoccupied at all k-points. It is always recommended to             |
|      include a few unoccupied bands to accelerate the convergence of        |
|      molecular dynamics runs (even for insulators or semiconductors).       |
|      Because the presence of unoccupied bands improves wavefunction         |
|      prediction, and helps to suppress 'band-crossings.'                    |
|                                                                             |
 ----------------------------------------------------------------------------- 

  17 F= -.95770449E+02 E0= -.95770695E+02  d E =-.150446E+01  mag=    27.5533
 curvature:  -0.10 expect dE=-0.116E-03 dE for cont linesearch -0.285E-06
 trial: gam= 0.32713 g(F)=  0.116E-02 g(S)=  0.000E+00 ort =-0.105E-03 (trialstep = 0.117E+01)
 search vector abs. value=  0.151E-02
 bond charge predicted
       N       E                     dE             d eps       ncg     rms          rms(c)
DAV:   1    -0.957689053333E+02    0.15446E-02   -0.39504E-01  1008   0.236E+00    0.388E-01
RMM:   2    -0.957710845917E+02   -0.21793E-02   -0.70961E-03  1035   0.541E-01    0.332E-01
RMM:   3    -0.957780258245E+02   -0.69412E-02   -0.19073E-02  1053   0.516E-01    0.843E-01
RMM:   4    -0.957722678944E+02    0.57579E-02   -0.10293E-02  1059   0.310E-01    0.435E-01
RMM:   5    -0.957709909625E+02    0.12769E-02   -0.23662E-03  1035   0.246E-01    0.131E-01
RMM:   6    -0.957709585554E+02    0.32407E-04   -0.10422E-03  1108   0.107E-01    0.992E-02
RMM:   7    -0.957708508533E+02    0.10770E-03   -0.29296E-04   938   0.588E-02    0.442E-02
RMM:   8    -0.957707799290E+02    0.70924E-04   -0.12197E-04   889   0.535E-02    0.538E-02
RMM:   9    -0.957707622768E+02    0.17652E-04   -0.61146E-05   782   0.493E-02    0.475E-02
RMM:  10    -0.957707345562E+02    0.27721E-04   -0.23173E-05   610   0.297E-02    0.186E-02
RMM:  11    -0.957707659538E+02   -0.31398E-04   -0.23638E-05   591   0.257E-02    0.214E-02
RMM:  12    -0.957707919874E+02   -0.26034E-04   -0.71291E-06   550   0.230E-02    0.121E-02
RMM:  13    -0.957708553149E+02   -0.63328E-04   -0.41750E-06   544   0.947E-03    0.823E-03
RMM:  14    -0.957709004243E+02   -0.45109E-04   -0.17728E-06   512   0.626E-03    0.698E-03
RMM:  15    -0.957709492228E+02   -0.48798E-04   -0.21231E-06   421   0.545E-03    0.606E-03
RMM:  16    -0.957710336484E+02   -0.84426E-04   -0.43531E-06   393   0.511E-03    0.617E-03
RMM:  17    -0.957711136279E+02   -0.79979E-04   -0.96701E-06   486   0.621E-03    0.356E-03
RMM:  18    -0.957711370385E+02   -0.23411E-04   -0.48637E-06   341   0.481E-03    0.336E-03
RMM:  19    -0.957711470647E+02   -0.10026E-04   -0.46970E-06   392   0.490E-03    0.195E-03
RMM:  20    -0.957711471874E+02   -0.12264E-06   -0.18717E-06   312   0.458E-03

 ----------------------------------------------------------------------------- 
|                                                                             |
|           W    W    AA    RRRRR   N    N  II  N    N   GGGG   !!!           |
|           W    W   A  A   R    R  NN   N  II  NN   N  G    G  !!!           |
|           W    W  A    A  R    R  N N  N  II  N N  N  G       !!!           |
|           W WW W  AAAAAA  RRRRR   N  N N  II  N  N N  G  GGG   !            |
|           WW  WW  A    A  R   R   N   NN  II  N   NN  G    G                |
|           W    W  A    A  R    R  N    N  II  N    N   GGGG   !!!           |
|                                                                             |
|      Your highest band is occupied at some k-points! Unless you are         |
|      performing a calculation for an insulator or semiconductor, without    |
|      unoccupied bands, you have included TOO FEW BANDS!! Please increase    |
|      the parameter NBANDS in file INCAR to ensure that the highest band   |
|      is unoccupied at all k-points. It is always recommended to             |
|      include a few unoccupied bands to accelerate the convergence of        |
|      molecular dynamics runs (even for insulators or semiconductors).       |
|      Because the presence of unoccupied bands improves wavefunction         |
|      prediction, and helps to suppress 'band-crossings.'                    |
|                                                                             |
 ----------------------------------------------------------------------------- 

  18 F= -.95771147E+02 E0= -.95771384E+02  d E =-.698118E-03  mag=    27.5585
 trial-energy change:   -0.000698  1 .order   -0.000684   -0.001316   -0.000052
 step:   1.2164(harm=  1.2164)  dis= 0.00225  next Energy=   -95.771134 (dE=-0.685E-03)
 bond charge predicted
       N       E                     dE             d eps       ncg     rms          rms(c)
DAV:   1    -0.957711447848E+02    0.22799E-05   -0.67268E-04  1036   0.976E-02    0.160E-02
RMM:   2    -0.957711477859E+02   -0.30011E-05   -0.96224E-06   524   0.219E-02    0.116E-02
RMM:   3    -0.957711539732E+02   -0.61873E-05   -0.91097E-06   522   0.216E-02    0.243E-02
RMM:   4    -0.957711507212E+02    0.32520E-05   -0.40083E-06   519   0.148E-02

 ----------------------------------------------------------------------------- 
|                                                                             |
|           W    W    AA    RRRRR   N    N  II  N    N   GGGG   !!!           |
|           W    W   A  A   R    R  NN   N  II  NN   N  G    G  !!!           |
|           W    W  A    A  R    R  N N  N  II  N N  N  G       !!!           |
|           W WW W  AAAAAA  RRRRR   N  N N  II  N  N N  G  GGG   !            |
|           WW  WW  A    A  R   R   N   NN  II  N   NN  G    G                |
|           W    W  A    A  R    R  N    N  II  N    N   GGGG   !!!           |
|                                                                             |
|      Your highest band is occupied at some k-points! Unless you are         |
|      performing a calculation for an insulator or semiconductor, without    |
|      unoccupied bands, you have included TOO FEW BANDS!! Please increase    |
|      the parameter NBANDS in file INCAR to ensure that the highest band   |
|      is unoccupied at all k-points. It is always recommended to             |
|      include a few unoccupied bands to accelerate the convergence of        |
|      molecular dynamics runs (even for insulators or semiconductors).       |
|      Because the presence of unoccupied bands improves wavefunction         |
|      prediction, and helps to suppress 'band-crossings.'                    |
|                                                                             |
 ----------------------------------------------------------------------------- 

  19 F= -.95771151E+02 E0= -.95771389E+02  d E =-.701651E-03  mag=    27.5585
 curvature:  -0.81 expect dE=-0.609E-03 dE for cont linesearch -0.225E-07
 trial: gam= 0.33858 g(F)=  0.748E-03 g(S)=  0.000E+00 ort =-0.645E-05 (trialstep = 0.118E+01)
 search vector abs. value=  0.917E-03
 bond charge predicted
       N       E                     dE             d eps       ncg     rms          rms(c)
DAV:   1    -0.957704757064E+02    0.67827E-03   -0.24008E-01  1008   0.183E+00    0.317E-01
RMM:   2    -0.957725147907E+02   -0.20391E-02   -0.76262E-03  1045   0.518E-01    0.418E-01
RMM:   3    -0.957729824500E+02   -0.46766E-03   -0.86936E-03  1028   0.538E-01    0.454E-01
RMM:   4    -0.957728658784E+02    0.11657E-03   -0.28886E-03  1028   0.278E-01    0.357E-01
RMM:   5    -0.957717826182E+02    0.10833E-02   -0.99527E-04  1025   0.151E-01    0.128E-01
RMM:   6    -0.957716377733E+02    0.14484E-03   -0.31275E-04  1019   0.764E-02    0.477E-02
RMM:   7    -0.957715235661E+02    0.11421E-03   -0.11558E-04   793   0.307E-02    0.423E-02
RMM:   8    -0.957714592150E+02    0.64351E-04   -0.71778E-05   803   0.512E-02    0.404E-02
RMM:   9    -0.957714402739E+02    0.18941E-04   -0.34639E-05   641   0.379E-02    0.247E-02
RMM:  10    -0.957714584046E+02   -0.18131E-04   -0.13097E-05   538   0.219E-02    0.190E-02
RMM:  11    -0.957714724773E+02   -0.14073E-04   -0.72086E-06   522   0.203E-02    0.105E-02
RMM:  12    -0.957715124921E+02   -0.40015E-04   -0.34487E-06   530   0.926E-03    0.643E-03
RMM:  13    -0.957715481249E+02   -0.35633E-04   -0.16059E-06   427   0.515E-03    0.520E-03
RMM:  14    -0.957716039604E+02   -0.55835E-04   -0.24896E-06   351   0.470E-03    0.446E-03
RMM:  15    -0.957716959141E+02   -0.91954E-04   -0.59142E-06   428   0.512E-03    0.339E-03
RMM:  16    -0.957717758432E+02   -0.79929E-04   -0.83684E-06   424   0.517E-03    0.229E-03
RMM:  17    -0.957718158590E+02   -0.40016E-04   -0.53113E-06   352   0.470E-03    0.169E-03
RMM:  18    -0.957718414740E+02   -0.25615E-04   -0.51691E-06   322   0.469E-03    0.144E-03
RMM:  19    -0.957718488222E+02   -0.73482E-05   -0.34458E-06   292   0.447E-03

 ----------------------------------------------------------------------------- 
|                                                                             |
|           W    W    AA    RRRRR   N    N  II  N    N   GGGG   !!!           |
|           W    W   A  A   R    R  NN   N  II  NN   N  G    G  !!!           |
|           W    W  A    A  R    R  N N  N  II  N N  N  G       !!!           |
|           W WW W  AAAAAA  RRRRR   N  N N  II  N  N N  G  GGG   !            |
|           WW  WW  A    A  R   R   N   NN  II  N   NN  G    G                |
|           W    W  A    A  R    R  N    N  II  N    N   GGGG   !!!           |
|                                                                             |
|      Your highest band is occupied at some k-points! Unless you are         |
|      performing a calculation for an insulator or semiconductor, without    |
|      unoccupied bands, you have included TOO FEW BANDS!! Please increase    |
|      the parameter NBANDS in file INCAR to ensure that the highest band   |
|      is unoccupied at all k-points. It is always recommended to             |
|      include a few unoccupied bands to accelerate the convergence of        |
|      molecular dynamics runs (even for insulators or semiconductors).       |
|      Because the presence of unoccupied bands improves wavefunction         |
|      prediction, and helps to suppress 'band-crossings.'                    |
|                                                                             |
 ----------------------------------------------------------------------------- 

  20 F= -.95771849E+02 E0= -.95772089E+02  d E =-.698101E-03  mag=    27.5537
 trial-energy change:   -0.000698  1 .order   -0.000688   -0.000879   -0.000496
 step:   2.7072(harm=  2.7072)  dis= 0.00157  next Energy=   -95.772161 (dE=-0.101E-02)
 bond charge predicted
       N       E                     dE             d eps       ncg     rms          rms(c)
DAV:   1    -0.957698754515E+02    0.19660E-02   -0.40474E-01  1008   0.237E+00    0.411E-01
RMM:   2    -0.957732678007E+02   -0.33923E-02   -0.12731E-02  1046   0.672E-01    0.535E-01
RMM:   3    -0.957738139670E+02   -0.54617E-03   -0.14293E-02  1025   0.695E-01    0.548E-01
RMM:   4    -0.957727788388E+02    0.10351E-02   -0.30262E-03  1029   0.352E-01    0.308E-01
RMM:   5    -0.957720502801E+02    0.72856E-03   -0.76863E-04  1022   0.149E-01    0.133E-01
RMM:   6    -0.957719054047E+02    0.14488E-03   -0.24759E-04  1021   0.706E-02    0.698E-02
RMM:   7    -0.957717361137E+02    0.16929E-03   -0.11117E-04   819   0.388E-02    0.472E-02
RMM:   8    -0.957716720532E+02    0.64060E-04   -0.13577E-04   922   0.660E-02    0.569E-02
RMM:   9    -0.957716373961E+02    0.34657E-04   -0.64068E-05   774   0.483E-02    0.337E-02
RMM:  10    -0.957716879284E+02   -0.50532E-04   -0.28644E-05   587   0.294E-02    0.244E-02
RMM:  11    -0.957717075902E+02   -0.19662E-04   -0.11082E-05   538   0.231E-02    0.962E-03
RMM:  12    -0.957717515519E+02   -0.43962E-04   -0.55798E-06   530   0.882E-03    0.811E-03
RMM:  13    -0.957717944623E+02   -0.42910E-04   -0.20675E-06   458   0.605E-03    0.698E-03
RMM:  14    -0.957718804411E+02   -0.85979E-04   -0.40529E-06   431   0.573E-03    0.622E-03
RMM:  15    -0.957720271764E+02   -0.14674E-03   -0.12833E-05   506   0.689E-03    0.383E-03
RMM:  16    -0.957720985949E+02   -0.71418E-04   -0.91863E-06   406   0.578E-03    0.319E-03
RMM:  17    -0.957721303293E+02   -0.31734E-04   -0.40870E-06   370   0.574E-03    0.221E-03
RMM:  18    -0.957721743729E+02   -0.44044E-04   -0.83546E-06   404   0.572E-03    0.226E-03
RMM:  19    -0.957721828226E+02   -0.84497E-05   -0.32699E-06   301   0.510E-03

 ----------------------------------------------------------------------------- 
|                                                                             |
|           W    W    AA    RRRRR   N    N  II  N    N   GGGG   !!!           |
|           W    W   A  A   R    R  NN   N  II  NN   N  G    G  !!!           |
|           W    W  A    A  R    R  N N  N  II  N N  N  G       !!!           |
|           W WW W  AAAAAA  RRRRR   N  N N  II  N  N N  G  GGG   !            |
|           WW  WW  A    A  R   R   N   NN  II  N   NN  G    G                |
|           W    W  A    A  R    R  N    N  II  N    N   GGGG   !!!           |
|                                                                             |
|      Your highest band is occupied at some k-points! Unless you are         |
|      performing a calculation for an insulator or semiconductor, without    |
|      unoccupied bands, you have included TOO FEW BANDS!! Please increase    |
|      the parameter NBANDS in file INCAR to ensure that the highest band   |
|      is unoccupied at all k-points. It is always recommended to             |
|      include a few unoccupied bands to accelerate the convergence of        |
|      molecular dynamics runs (even for insulators or semiconductors).       |
|      Because the presence of unoccupied bands improves wavefunction         |
|      prediction, and helps to suppress 'band-crossings.'                    |
|                                                                             |
 ----------------------------------------------------------------------------- 

  21 F= -.95772183E+02 E0= -.95772432E+02  d E =-.103210E-02  mag=    27.5457
 curvature:  -1.66 expect dE=-0.635E-03 dE for cont linesearch -0.119E-07
 trial: gam= 0.53108 g(F)=  0.382E-03 g(S)=  0.000E+00 ort =-0.256E-05 (trialstep = 0.148E+01)
 search vector abs. value=  0.638E-03
 bond charge predicted
       N       E                     dE             d eps       ncg     rms          rms(c)
DAV:   1    -0.957713055182E+02    0.86885E-03   -0.25833E-01  1008   0.191E+00    0.324E-01
RMM:   2    -0.957751362486E+02   -0.38307E-02   -0.86089E-03  1056   0.514E-01    0.741E-01
RMM:   3    -0.957760830815E+02   -0.94683E-03   -0.11711E-02  1048   0.457E-01    0.602E-01
RMM:   4    -0.957755880532E+02    0.49503E-03   -0.13052E-02  1081   0.354E-01    0.605E-01
RMM:   5    -0.957725218986E+02    0.30662E-02   -0.25457E-03  1027   0.288E-01    0.983E-02
RMM:   6    -0.957725972659E+02   -0.75367E-04   -0.14264E-03  1076   0.945E-02    0.884E-02
RMM:   7    -0.957725407598E+02    0.56506E-04   -0.20852E-04   849   0.507E-02    0.378E-02
RMM:   8    -0.957724965859E+02    0.44174E-04   -0.79356E-05   705   0.397E-02    0.442E-02
RMM:   9    -0.957724428028E+02    0.53783E-04   -0.41448E-05   689   0.429E-02    0.332E-02
RMM:  10    -0.957723856952E+02    0.57108E-04   -0.27267E-05   568   0.251E-02    0.208E-02
RMM:  11    -0.957723882118E+02   -0.25166E-05   -0.10674E-05   545   0.197E-02

 ----------------------------------------------------------------------------- 
|                                                                             |
|           W    W    AA    RRRRR   N    N  II  N    N   GGGG   !!!           |
|           W    W   A  A   R    R  NN   N  II  NN   N  G    G  !!!           |
|           W    W  A    A  R    R  N N  N  II  N N  N  G       !!!           |
|           W WW W  AAAAAA  RRRRR   N  N N  II  N  N N  G  GGG   !            |
|           WW  WW  A    A  R   R   N   NN  II  N   NN  G    G                |
|           W    W  A    A  R    R  N    N  II  N    N   GGGG   !!!           |
|                                                                             |
|      Your highest band is occupied at some k-points! Unless you are         |
|      performing a calculation for an insulator or semiconductor, without    |
|      unoccupied bands, you have included TOO FEW BANDS!! Please increase    |
|      the parameter NBANDS in file INCAR to ensure that the highest band   |
|      is unoccupied at all k-points. It is always recommended to             |
|      include a few unoccupied bands to accelerate the convergence of        |
|      molecular dynamics runs (even for insulators or semiconductors).       |
|      Because the presence of unoccupied bands improves wavefunction         |
|      prediction, and helps to suppress 'band-crossings.'                    |
|                                                                             |
 ----------------------------------------------------------------------------- 

  22 F= -.95772388E+02 E0= -.95772646E+02  d E =-.205389E-03  mag=    27.5413
 ZBRENT: can't locate minimum, use default step
 trial-energy change:   -0.000205  1 .order   -0.000499   -0.000564   -0.000434
 step:   5.9351(harm=  6.4126)  dis= 0.00000  next Energy=   -95.773402 (dE=-0.122E-02)
 bond charge predicted
       N       E                     dE             d eps       ncg     rms          rms(c)
DAV:   1    -0.957604820081E+02    0.11904E-01   -0.23243E+00  1008   0.575E+00    0.974E-01
RMM:   2    -0.957938228638E+02   -0.33341E-01   -0.77989E-02  1057   0.155E+00    0.179E+00
RMM:   3    -0.957983518572E+02   -0.45290E-02   -0.10305E-01  1048   0.140E+00    0.156E+00
RMM:   4    -0.957919998121E+02    0.63520E-02   -0.81367E-02  1077   0.950E-01    0.150E+00
RMM:   5    -0.957720050297E+02    0.19995E-01   -0.16362E-02  1028   0.775E-01    0.245E-01
RMM:   6    -0.957718310134E+02    0.17402E-03   -0.56563E-03  1179   0.149E-01    0.113E-01
RMM:   7    -0.957715921005E+02    0.23891E-03   -0.99736E-04  1077   0.121E-01    0.154E-01
RMM:   8    -0.957713506490E+02    0.24145E-03   -0.42736E-04  1022   0.113E-01    0.103E-01
RMM:   9    -0.957711771465E+02    0.17350E-03   -0.44848E-04  1057   0.975E-02    0.118E-01
RMM:  10    -0.957711070256E+02    0.70121E-04   -0.21283E-04  1005   0.894E-02    0.574E-02
RMM:  11    -0.957712303615E+02   -0.12334E-03   -0.13094E-04   869   0.362E-02    0.405E-02
RMM:  12    -0.957714125736E+02   -0.18221E-03   -0.62083E-05   762   0.430E-02    0.433E-02
RMM:  13    -0.957715688482E+02   -0.15627E-03   -0.22435E-05   591   0.319E-02    0.257E-02
RMM:  14    -0.957719006601E+02   -0.33181E-03   -0.19071E-05   593   0.152E-02    0.214E-02
RMM:  15    -0.957721688874E+02   -0.26823E-03   -0.17413E-05   579   0.180E-02    0.167E-02
RMM:  16    -0.957725535822E+02   -0.38469E-03   -0.31430E-05   602   0.131E-02    0.122E-02
RMM:  17    -0.957729059997E+02   -0.35242E-03   -0.40415E-05   598   0.125E-02    0.112E-02
RMM:  18    -0.957731160848E+02   -0.21009E-03   -0.30932E-05   577   0.121E-02    0.952E-03
RMM:  19    -0.957732493091E+02   -0.13322E-03   -0.28763E-05   582   0.117E-02    0.569E-03
RMM:  20    -0.957732856990E+02   -0.36390E-04   -0.14767E-05   556   0.963E-03    0.410E-03
RMM:  21    -0.957732937770E+02   -0.80780E-05   -0.75174E-06   446   0.774E-03

 ----------------------------------------------------------------------------- 
|                                                                             |
|           W    W    AA    RRRRR   N    N  II  N    N   GGGG   !!!           |
|           W    W   A  A   R    R  NN   N  II  NN   N  G    G  !!!           |
|           W    W  A    A  R    R  N N  N  II  N N  N  G       !!!           |
|           W WW W  AAAAAA  RRRRR   N  N N  II  N  N N  G  GGG   !            |
|           WW  WW  A    A  R   R   N   NN  II  N   NN  G    G                |
|           W    W  A    A  R    R  N    N  II  N    N   GGGG   !!!           |
|                                                                             |
|      Your highest band is occupied at some k-points! Unless you are         |
|      performing a calculation for an insulator or semiconductor, without    |
|      unoccupied bands, you have included TOO FEW BANDS!! Please increase    |
|      the parameter NBANDS in file INCAR to ensure that the highest band   |
|      is unoccupied at all k-points. It is always recommended to             |
|      include a few unoccupied bands to accelerate the convergence of        |
|      molecular dynamics runs (even for insulators or semiconductors).       |
|      Because the presence of unoccupied bands improves wavefunction         |
|      prediction, and helps to suppress 'band-crossings.'                    |
|                                                                             |
 ----------------------------------------------------------------------------- 

  23 F= -.95773294E+02 E0= -.95773599E+02  d E =-.111095E-02  mag=    27.5240
 curvature:  -5.32 expect dE=-0.439E-02 dE for cont linesearch -0.279E-05
 trial: gam= 2.20775 g(F)=  0.825E-03 g(S)=  0.000E+00 ort =-0.183E-04 (trialstep = 0.393E+00)
 search vector abs. value=  0.385E-02
 bond charge predicted
       N       E                     dE             d eps       ncg     rms          rms(c)
DAV:   1    -0.957729901877E+02    0.29551E-03   -0.10946E-01  1008   0.125E+00    0.208E-01
RMM:   2    -0.957745487412E+02   -0.15586E-02   -0.32559E-03  1054   0.314E-01    0.460E-01
RMM:   3    -0.957751129365E+02   -0.56420E-03   -0.51147E-03  1044   0.288E-01    0.432E-01
RMM:   4    -0.957749537598E+02    0.15918E-03   -0.61130E-03  1080   0.229E-01    0.412E-01
RMM:   5    -0.957734719161E+02    0.14818E-02   -0.10529E-03  1023   0.183E-01    0.630E-02
RMM:   6    -0.957735142561E+02   -0.42340E-04   -0.62542E-04   883   0.437E-02    0.304E-02
RMM:   7    -0.957734944948E+02    0.19761E-04   -0.50302E-05   639   0.318E-02    0.281E-02
RMM:   8    -0.957734665823E+02    0.27912E-04   -0.17759E-05   565   0.294E-02    0.237E-02
RMM:   9    -0.957734425090E+02    0.24073E-04   -0.16054E-05   563   0.267E-02    0.218E-02
RMM:  10    -0.957734139804E+02    0.28529E-04   -0.13830E-05   545   0.218E-02    0.916E-03
RMM:  11    -0.957734284211E+02   -0.14441E-04   -0.43656E-06   531   0.112E-02    0.665E-03
RMM:  12    -0.957734393601E+02   -0.10939E-04   -0.23903E-06   522   0.104E-02    0.578E-03
RMM:  13    -0.957734582903E+02   -0.18930E-04   -0.13018E-06   506   0.723E-03    0.393E-03
RMM:  14    -0.957734798803E+02   -0.21590E-04   -0.10533E-06   314   0.445E-03    0.366E-03
RMM:  15    -0.957735005933E+02   -0.20713E-04   -0.97118E-07   285   0.376E-03    0.299E-03
RMM:  16    -0.957735285876E+02   -0.27994E-04   -0.16976E-06   273   0.378E-03    0.247E-03
RMM:  17    -0.957735646278E+02   -0.36040E-04   -0.38070E-06   297   0.408E-03    0.179E-03
RMM:  18    -0.957735780606E+02   -0.13433E-04   -0.22545E-06   282   0.400E-03    0.148E-03
RMM:  19    -0.957735871359E+02   -0.90752E-05   -0.27911E-06   293   0.388E-03

 ----------------------------------------------------------------------------- 
|                                                                             |
|           W    W    AA    RRRRR   N    N  II  N    N   GGGG   !!!           |
|           W    W   A  A   R    R  NN   N  II  NN   N  G    G  !!!           |
|           W    W  A    A  R    R  N N  N  II  N N  N  G       !!!           |
|           W WW W  AAAAAA  RRRRR   N  N N  II  N  N N  G  GGG   !            |
|           WW  WW  A    A  R   R   N   NN  II  N   NN  G    G                |
|           W    W  A    A  R    R  N    N  II  N    N   GGGG   !!!           |
|                                                                             |
|      Your highest band is occupied at some k-points! Unless you are         |
|      performing a calculation for an insulator or semiconductor, without    |
|      unoccupied bands, you have included TOO FEW BANDS!! Please increase    |
|      the parameter NBANDS in file INCAR to ensure that the highest band   |
|      is unoccupied at all k-points. It is always recommended to             |
|      include a few unoccupied bands to accelerate the convergence of        |
|      molecular dynamics runs (even for insulators or semiconductors).       |
|      Because the presence of unoccupied bands improves wavefunction         |
|      prediction, and helps to suppress 'band-crossings.'                    |
|                                                                             |
 ----------------------------------------------------------------------------- 

  24 F= -.95773587E+02 E0= -.95773901E+02  d E =-.293359E-03  mag=    27.5235
 ZBRENT: can't locate minimum, use default step
 trial-energy change:   -0.000293  1 .order   -0.000278   -0.000308   -0.000248
 step:   1.5718(harm=  2.0150)  dis= 0.00019  next Energy=   -95.774084 (dE=-0.791E-03)
 bond charge predicted
       N       E                     dE             d eps       ncg     rms          rms(c)
DAV:   1    -0.957688135610E+02    0.47645E-02   -0.98519E-01  1008   0.375E+00    0.623E-01
RMM:   2    -0.957836894871E+02   -0.14876E-01   -0.30831E-02  1053   0.940E-01    0.141E+00
RMM:   3    -0.957868867260E+02   -0.31972E-02   -0.46270E-02  1052   0.842E-01    0.113E+00
RMM:   4    -0.957846858461E+02    0.22009E-02   -0.49114E-02  1089   0.665E-01    0.111E+00
RMM:   5    -0.957733980244E+02    0.11288E-01   -0.97663E-03  1028   0.563E-01    0.228E-01
RMM:   6    -0.957737065142E+02   -0.30849E-03   -0.51801E-03  1103   0.180E-01    0.135E-01
RMM:   7    -0.957736369147E+02    0.69600E-04   -0.64712E-04  1042   0.111E-01    0.101E-01
RMM:   8    -0.957735000153E+02    0.13690E-03   -0.20127E-04  1017   0.728E-02    0.848E-02
RMM:   9    -0.957734252771E+02    0.74738E-04   -0.17555E-04   988   0.730E-02    0.817E-02
RMM:  10    -0.957732988681E+02    0.12641E-03   -0.13380E-04   930   0.475E-02    0.504E-02
RMM:  11    -0.957732874264E+02    0.11442E-04   -0.64160E-05   789   0.417E-02    0.390E-02
RMM:  12    -0.957733271124E+02   -0.39686E-04   -0.42882E-05   660   0.378E-02    0.284E-02
RMM:  13    -0.957734229211E+02   -0.95809E-04   -0.86095E-06   572   0.197E-02    0.160E-02
RMM:  14    -0.957735179349E+02   -0.95014E-04   -0.54008E-06   548   0.136E-02    0.107E-02
RMM:  15    -0.957735933273E+02   -0.75392E-04   -0.36509E-06   538   0.723E-03    0.933E-03
RMM:  16    -0.957736740796E+02   -0.80752E-04   -0.35541E-06   514   0.700E-03    0.809E-03
RMM:  17    -0.957738097895E+02   -0.13571E-03   -0.82518E-06   454   0.651E-03    0.709E-03
RMM:  18    -0.957739300879E+02   -0.12030E-03   -0.11593E-05   528   0.688E-03    0.360E-03
RMM:  19    -0.957740062603E+02   -0.76172E-04   -0.93476E-06   426   0.630E-03    0.362E-03
RMM:  20    -0.957740385195E+02   -0.32259E-04   -0.55574E-06   429   0.605E-03    0.178E-03
RMM:  21    -0.957740607418E+02   -0.22222E-04   -0.46700E-06   339   0.506E-03    0.137E-03
RMM:  22    -0.957740652570E+02   -0.45152E-05   -0.20360E-06   262   0.455E-03

 ----------------------------------------------------------------------------- 
|                                                                             |
|           W    W    AA    RRRRR   N    N  II  N    N   GGGG   !!!           |
|           W    W   A  A   R    R  NN   N  II  NN   N  G    G  !!!           |
|           W    W  A    A  R    R  N N  N  II  N N  N  G       !!!           |
|           W WW W  AAAAAA  RRRRR   N  N N  II  N  N N  G  GGG   !            |
|           WW  WW  A    A  R   R   N   NN  II  N   NN  G    G                |
|           W    W  A    A  R    R  N    N  II  N    N   GGGG   !!!           |
|                                                                             |
|      Your highest band is occupied at some k-points! Unless you are         |
|      performing a calculation for an insulator or semiconductor, without    |
|      unoccupied bands, you have included TOO FEW BANDS!! Please increase    |
|      the parameter NBANDS in file INCAR to ensure that the highest band   |
|      is unoccupied at all k-points. It is always recommended to             |
|      include a few unoccupied bands to accelerate the convergence of        |
|      molecular dynamics runs (even for insulators or semiconductors).       |
|      Because the presence of unoccupied bands improves wavefunction         |
|      prediction, and helps to suppress 'band-crossings.'                    |
|                                                                             |
 ----------------------------------------------------------------------------- 

  25 F= -.95774065E+02 E0= -.95774407E+02  d E =-.771480E-03  mag=    27.5212
 curvature:  -4.58 expect dE=-0.886E-03 dE for cont linesearch -0.318E-04
 ZBRENT: extrapolating
 opt :   1.9839  next Energy=   -95.774099 (dE=-0.805E-03)
 bond charge predicted
       N       E                     dE             d eps       ncg     rms          rms(c)
DAV:   1    -0.957734609749E+02    0.59977E-03   -0.12041E-01  1008   0.131E+00    0.218E-01
RMM:   2    -0.957752107772E+02   -0.17498E-02   -0.36863E-03  1053   0.329E-01    0.495E-01
RMM:   3    -0.957757767450E+02   -0.56597E-03   -0.54075E-03  1047   0.301E-01    0.452E-01
RMM:   4    -0.957756055110E+02    0.17123E-03   -0.60911E-03  1079   0.241E-01    0.427E-01
RMM:   5    -0.957739959300E+02    0.16096E-02   -0.11350E-03  1022   0.192E-01    0.585E-02
RMM:   6    -0.957740266184E+02   -0.30688E-04   -0.64325E-04   920   0.488E-02    0.325E-02
RMM:   7    -0.957739988714E+02    0.27747E-04   -0.55971E-05   647   0.323E-02    0.272E-02
RMM:   8    -0.957739631821E+02    0.35689E-04   -0.26607E-05   566   0.294E-02    0.274E-02
RMM:   9    -0.957739405997E+02    0.22582E-04   -0.18537E-05   565   0.284E-02    0.230E-02
RMM:  10    -0.957739129585E+02    0.27641E-04   -0.95684E-06   543   0.187E-02    0.837E-03
RMM:  11    -0.957739296618E+02   -0.16703E-04   -0.50351E-06   527   0.124E-02    0.938E-03
RMM:  12    -0.957739409963E+02   -0.11335E-04   -0.33090E-06   513   0.130E-02    0.612E-03
RMM:  13    -0.957739591597E+02   -0.18163E-04   -0.14788E-06   498   0.691E-03    0.357E-03
RMM:  14    -0.957739877919E+02   -0.28632E-04   -0.13542E-06   262   0.403E-03    0.324E-03
RMM:  15    -0.957740082151E+02   -0.20423E-04   -0.11249E-06   299   0.392E-03    0.261E-03
RMM:  16    -0.957740449585E+02   -0.36743E-04   -0.21094E-06   273   0.394E-03    0.232E-03
RMM:  17    -0.957740762197E+02   -0.31261E-04   -0.29742E-06   290   0.396E-03    0.150E-03
RMM:  18    -0.957740925769E+02   -0.16357E-04   -0.23361E-06   290   0.408E-03    0.150E-03
RMM:  19    -0.957741029766E+02   -0.10400E-04   -0.23765E-06   262   0.384E-03    0.117E-03
RMM:  20    -0.957741055794E+02   -0.26029E-05   -0.17534E-06   248   0.374E-03

 ----------------------------------------------------------------------------- 
|                                                                             |
|           W    W    AA    RRRRR   N    N  II  N    N   GGGG   !!!           |
|           W    W   A  A   R    R  NN   N  II  NN   N  G    G  !!!           |
|           W    W  A    A  R    R  N N  N  II  N N  N  G       !!!           |
|           W WW W  AAAAAA  RRRRR   N  N N  II  N  N N  G  GGG   !            |
|           WW  WW  A    A  R   R   N   NN  II  N   NN  G    G                |
|           W    W  A    A  R    R  N    N  II  N    N   GGGG   !!!           |
|                                                                             |
|      Your highest band is occupied at some k-points! Unless you are         |
|      performing a calculation for an insulator or semiconductor, without    |
|      unoccupied bands, you have included TOO FEW BANDS!! Please increase    |
|      the parameter NBANDS in file INCAR to ensure that the highest band   |
|      is unoccupied at all k-points. It is always recommended to             |
|      include a few unoccupied bands to accelerate the convergence of        |
|      molecular dynamics runs (even for insulators or semiconductors).       |
|      Because the presence of unoccupied bands improves wavefunction         |
|      prediction, and helps to suppress 'band-crossings.'                    |
|                                                                             |
 ----------------------------------------------------------------------------- 

  26 F= -.95774106E+02 E0= -.95774459E+02  d E =-.811802E-03  mag=    27.5206
 curvature:  -4.85 expect dE=-0.104E-02 dE for cont linesearch -0.118E-09
 trial: gam= 0.17494 g(F)=  0.215E-03 g(S)=  0.000E+00 ort =-0.306E-06 (trialstep = 0.711E+00)
 search vector abs. value=  0.333E-03
 bond charge predicted
       N       E                     dE             d eps       ncg     rms          rms(c)
DAV:   1    -0.957740777856E+02    0.25191E-04   -0.31188E-02  1008   0.664E-01    0.108E-01
RMM:   2    -0.957745022697E+02   -0.42448E-03   -0.13919E-03  1050   0.183E-01    0.217E-01
RMM:   3    -0.957748571561E+02   -0.35489E-03   -0.25794E-03  1036   0.152E-01    0.290E-01
RMM:   4    -0.957744048915E+02    0.45226E-03   -0.13128E-03  1052   0.133E-01    0.159E-01
RMM:   5    -0.957742341314E+02    0.17076E-03   -0.19692E-04   986   0.884E-02    0.378E-02
RMM:   6    -0.957742318812E+02    0.22502E-05   -0.94274E-05   649   0.282E-02

 ----------------------------------------------------------------------------- 
|                                                                             |
|           W    W    AA    RRRRR   N    N  II  N    N   GGGG   !!!           |
|           W    W   A  A   R    R  NN   N  II  NN   N  G    G  !!!           |
|           W    W  A    A  R    R  N N  N  II  N N  N  G       !!!           |
|           W WW W  AAAAAA  RRRRR   N  N N  II  N  N N  G  GGG   !            |
|           WW  WW  A    A  R   R   N   NN  II  N   NN  G    G                |
|           W    W  A    A  R    R  N    N  II  N    N   GGGG   !!!           |
|                                                                             |
|      Your highest band is occupied at some k-points! Unless you are         |
|      performing a calculation for an insulator or semiconductor, without    |
|      unoccupied bands, you have included TOO FEW BANDS!! Please increase    |
|      the parameter NBANDS in file INCAR to ensure that the highest band   |
|      is unoccupied at all k-points. It is always recommended to             |
|      include a few unoccupied bands to accelerate the convergence of        |
|      molecular dynamics runs (even for insulators or semiconductors).       |
|      Because the presence of unoccupied bands improves wavefunction         |
|      prediction, and helps to suppress 'band-crossings.'                    |
|                                                                             |
 ----------------------------------------------------------------------------- 

  27 F= -.95774232E+02 E0= -.95774583E+02  d E =-.126302E-03  mag=    27.5201
 ZBRENT: can't locate minimum, use default step
 trial-energy change:   -0.000126  1 .order   -0.000134   -0.000153   -0.000115
 step:   2.8446(harm=  2.8848)  dis= 0.00002  next Energy=   -95.774416 (dE=-0.310E-03)
 bond charge predicted
       N       E                     dE             d eps       ncg     rms          rms(c)
DAV:   1    -0.957729343500E+02    0.12998E-02   -0.28068E-01  1008   0.199E+00    0.323E-01
RMM:   2    -0.957763514448E+02   -0.34171E-02   -0.11422E-02  1057   0.525E-01    0.596E-01
RMM:   3    -0.957802625754E+02   -0.39111E-02   -0.23730E-02  1046   0.455E-01    0.871E-01
RMM:   4    -0.957757815195E+02    0.44811E-02   -0.10703E-02  1055   0.372E-01    0.431E-01
RMM:   5    -0.957742702252E+02    0.15113E-02   -0.21320E-03  1027   0.258E-01    0.791E-02
RMM:   6    -0.957743206754E+02   -0.50450E-04   -0.91301E-04  1075   0.856E-02    0.834E-02
RMM:   7    -0.957742800558E+02    0.40620E-04   -0.23120E-04   898   0.508E-02    0.648E-02
RMM:   8    -0.957742462424E+02    0.33813E-04   -0.12686E-04   874   0.528E-02    0.628E-02
RMM:   9    -0.957742000321E+02    0.46210E-04   -0.44485E-05   683   0.411E-02    0.310E-02
RMM:  10    -0.957741820355E+02    0.17997E-04   -0.38045E-05   598   0.258E-02    0.297E-02
RMM:  11    -0.957741895141E+02   -0.74786E-05   -0.18308E-05   558   0.293E-02

 ----------------------------------------------------------------------------- 
|                                                                             |
|           W    W    AA    RRRRR   N    N  II  N    N   GGGG   !!!           |
|           W    W   A  A   R    R  NN   N  II  NN   N  G    G  !!!           |
|           W    W  A    A  R    R  N N  N  II  N N  N  G       !!!           |
|           W WW W  AAAAAA  RRRRR   N  N N  II  N  N N  G  GGG   !            |
|           WW  WW  A    A  R   R   N   NN  II  N   NN  G    G                |
|           W    W  A    A  R    R  N    N  II  N    N   GGGG   !!!           |
|                                                                             |
|      Your highest band is occupied at some k-points! Unless you are         |
|      performing a calculation for an insulator or semiconductor, without    |
|      unoccupied bands, you have included TOO FEW BANDS!! Please increase    |
|      the parameter NBANDS in file INCAR to ensure that the highest band   |
|      is unoccupied at all k-points. It is always recommended to             |
|      include a few unoccupied bands to accelerate the convergence of        |
|      molecular dynamics runs (even for insulators or semiconductors).       |
|      Because the presence of unoccupied bands improves wavefunction         |
|      prediction, and helps to suppress 'band-crossings.'                    |
|                                                                             |
 ----------------------------------------------------------------------------- 

  28 F= -.95774190E+02 E0= -.95774546E+02  d E =-.839347E-04  mag=    27.5163
 curvature:  -2.23 expect dE=-0.207E-03 dE for cont linesearch -0.429E-05
 ZBRENT: interpolating
 opt :   2.5566  next Energy=   -95.774193 (dE=-0.876E-04)
 bond charge predicted
       N       E                     dE             d eps       ncg     rms          rms(c)
DAV:   1    -0.957741822231E+02   -0.18765E-06   -0.51620E-03  1008   0.274E-01    0.492E-02
RMM:   2    -0.957745522233E+02   -0.37000E-03   -0.99247E-04  1045   0.118E-01    0.218E-01
RMM:   3    -0.957743027237E+02    0.24950E-03   -0.82673E-04   984   0.815E-02    0.993E-02
RMM:   4    -0.957742722373E+02    0.30486E-04   -0.23482E-04   970   0.690E-02    0.690E-02
RMM:   5    -0.957742568467E+02    0.15391E-04   -0.37639E-05   601   0.356E-02    0.304E-02
RMM:   6    -0.957742595649E+02   -0.27181E-05   -0.11128E-05   536   0.212E-02

 ----------------------------------------------------------------------------- 
|                                                                             |
|           W    W    AA    RRRRR   N    N  II  N    N   GGGG   !!!           |
|           W    W   A  A   R    R  NN   N  II  NN   N  G    G  !!!           |
|           W    W  A    A  R    R  N N  N  II  N N  N  G       !!!           |
|           W WW W  AAAAAA  RRRRR   N  N N  II  N  N N  G  GGG   !            |
|           WW  WW  A    A  R   R   N   NN  II  N   NN  G    G                |
|           W    W  A    A  R    R  N    N  II  N    N   GGGG   !!!           |
|                                                                             |
|      Your highest band is occupied at some k-points! Unless you are         |
|      performing a calculation for an insulator or semiconductor, without    |
|      unoccupied bands, you have included TOO FEW BANDS!! Please increase    |
|      the parameter NBANDS in file INCAR to ensure that the highest band   |
|      is unoccupied at all k-points. It is always recommended to             |
|      include a few unoccupied bands to accelerate the convergence of        |
|      molecular dynamics runs (even for insulators or semiconductors).       |
|      Because the presence of unoccupied bands improves wavefunction         |
|      prediction, and helps to suppress 'band-crossings.'                    |
|                                                                             |
 ----------------------------------------------------------------------------- 

  29 F= -.95774260E+02 E0= -.95774616E+02  d E =-.153985E-03  mag=    27.5164
 curvature:  -1.90 expect dE=-0.141E-03 dE for cont linesearch -0.159E-06
 trial: gam= 0.38341 g(F)=  0.744E-04 g(S)=  0.000E+00 ort =-0.528E-05 (trialstep = 0.108E+01)
 search vector abs. value=  0.119E-03
 bond charge predicted
       N       E                     dE             d eps       ncg     rms          rms(c)
DAV:   1    -0.957741985483E+02    0.58298E-04   -0.25696E-02  1008   0.602E-01    0.961E-02
RMM:   2    -0.957747153529E+02   -0.51680E-03   -0.12442E-03  1047   0.162E-01    0.251E-01
RMM:   3    -0.957746723706E+02    0.42982E-04   -0.17111E-03  1026   0.123E-01    0.204E-01
RMM:   4    -0.957745479692E+02    0.12440E-03   -0.52209E-04  1028   0.102E-01    0.154E-01
RMM:   5    -0.957743722778E+02    0.17569E-03   -0.20492E-04   943   0.728E-02    0.307E-02
RMM:   6    -0.957743747764E+02   -0.24986E-05   -0.54497E-05   615   0.279E-02

 ----------------------------------------------------------------------------- 
|                                                                             |
|           W    W    AA    RRRRR   N    N  II  N    N   GGGG   !!!           |
|           W    W   A  A   R    R  NN   N  II  NN   N  G    G  !!!           |
|           W    W  A    A  R    R  N N  N  II  N N  N  G       !!!           |
|           W WW W  AAAAAA  RRRRR   N  N N  II  N  N N  G  GGG   !            |
|           WW  WW  A    A  R   R   N   NN  II  N   NN  G    G                |
|           W    W  A    A  R    R  N    N  II  N    N   GGGG   !!!           |
|                                                                             |
|      Your highest band is occupied at some k-points! Unless you are         |
|      performing a calculation for an insulator or semiconductor, without    |
|      unoccupied bands, you have included TOO FEW BANDS!! Please increase    |
|      the parameter NBANDS in file INCAR to ensure that the highest band   |
|      is unoccupied at all k-points. It is always recommended to             |
|      include a few unoccupied bands to accelerate the convergence of        |
|      molecular dynamics runs (even for insulators or semiconductors).       |
|      Because the presence of unoccupied bands improves wavefunction         |
|      prediction, and helps to suppress 'band-crossings.'                    |
|                                                                             |
 ----------------------------------------------------------------------------- 

  30 F= -.95774375E+02 E0= -.95774729E+02  d E =-.115212E-03  mag=    27.5161
 trial-energy change:   -0.000115  1 .order   -0.000060   -0.000078   -0.000043
 step:   1.1960(harm=  2.3859)  dis= 0.00027  next Energy=   -95.774377 (dE=-0.118E-03)
 bond charge predicted
       N       E                     dE             d eps       ncg     rms          rms(c)
DAV:   1    -0.957743820461E+02   -0.97683E-05   -0.32454E-04  1078   0.760E-02    0.174E-02
RMM:   2    -0.957744205008E+02   -0.38455E-04   -0.14234E-04   775   0.466E-02    0.636E-02
RMM:   3    -0.957743985306E+02    0.21970E-04   -0.32906E-05   582   0.373E-02    0.288E-02
RMM:   4    -0.957743943865E+02    0.41441E-05   -0.14785E-05   542   0.182E-02

 ----------------------------------------------------------------------------- 
|                                                                             |
|           W    W    AA    RRRRR   N    N  II  N    N   GGGG   !!!           |
|           W    W   A  A   R    R  NN   N  II  NN   N  G    G  !!!           |
|           W    W  A    A  R    R  N N  N  II  N N  N  G       !!!           |
|           W WW W  AAAAAA  RRRRR   N  N N  II  N  N N  G  GGG   !            |
|           WW  WW  A    A  R   R   N   NN  II  N   NN  G    G                |
|           W    W  A    A  R    R  N    N  II  N    N   GGGG   !!!           |
|                                                                             |
|      Your highest band is occupied at some k-points! Unless you are         |
|      performing a calculation for an insulator or semiconductor, without    |
|      unoccupied bands, you have included TOO FEW BANDS!! Please increase    |
|      the parameter NBANDS in file INCAR to ensure that the highest band   |
|      is unoccupied at all k-points. It is always recommended to             |
|      include a few unoccupied bands to accelerate the convergence of        |
|      molecular dynamics runs (even for insulators or semiconductors).       |
|      Because the presence of unoccupied bands improves wavefunction         |
|      prediction, and helps to suppress 'band-crossings.'                    |
|                                                                             |
 ----------------------------------------------------------------------------- 

  31 F= -.95774394E+02 E0= -.95774755E+02  d E =-.134822E-03  mag=    27.5160
 curvature:  -0.33 expect dE=-0.717E-05 dE for cont linesearch -0.313E-05
 trial: gam=-0.13980 g(F)=  0.215E-04 g(S)=  0.000E+00 ort = 0.334E-04 (trialstep = 0.110E+01)
 search vector abs. value=  0.145E-04
 reached required accuracy - stopping structural energy minimisation
