 vasp.5.3.3 18Dez12 (build Sep  7 2015 22:32:56) complex                        
  
 executed on             LinuxIFC date 2002.01.11  02:49:24
 running on    1 total cores
 distrk:  each k-point on    1 cores,    1 groups
 distr:  one band on NCORES_PER_BAND=   1 cores,    1 groups


-----------------------------    EDDIAG:  cpu time    2.60: real time    2.60
  RMM-DIIS:  cpu time    8.46: real time    8.47
    ORTHCH:  cpu time    0.13: real time    0.13
       DOS:  cpu time    0.00: real time    0.00
    CHARGE:  cpu time    1.28: real time    1.28
    MIXING:  cpu time    0.01: real time    0.01
    --------------------------------------------
      LOOP:  cpu time   12.92: real time   12.93

 eigenvalue-minimisations  :   770
 total energy-change (2. order) : 0.2303661E+02  (-0.2034206E+02)
 number of electron      96.0000836 magnetization      11.8914575
 augmentation part       52.4068078 magnetization      11.4574553

 Broyden mixing:
  rms(total) = 0.80151E+01    rms(broyden)= 0.80148E+01
  rms(prec ) = 0.98301E+01
  weight for this iteration     100.00

 eigenvalues of (default mixing * dielectric matrix)
  average eigenvalue GAMMA=   0.2576
  0.3213  0.3213  0.1303

 Free energy of the ion-electron system (eV)
  ---------------------------------------------------
  alpha Z        PSCENC =       328.78290224
  Ewald energy   TEWEN  =     19259.87496258
  -1/2 Hartree   DENC   =    -26511.72685027
  -exchange  EXHF       =         0.00000000
  -V(xc)+E(xc)   XCENC  =        37.05651387
  PAW double counting   =      7392.99050893    -7469.30301221
  entropy T*S    EENTRO =        -0.00336494
  eigenvalues    EBANDS =      -292.35898648
  atomic energy  EATOM  =      7131.53793727
  ---------------------------------------------------
  free energy    TOTEN  =      -123.14938902 eV

  energy without entropy =     -123.14602408  energy(sigma->0) =     -123.14854778
re radius for proj-oper                               
   RAUG   =    1.300    factor for augmentation sphere                          
   RDEP   =    2.442    radius for radial grids                                 
   RDEPT  =    1.890    core radius for aug-charge                              
                                                                                
   Atomic configuration                                                         
    9 entries                                                                   
     n  l   j            E        occ.                                          
     1  0  0.50     -6993.8440   2.0000                                         
     2  0  0.50      -814.6047   2.0000                                         
     2  1  1.50      -693.3689   6.0000                                         
     3  0  0.50       -89.4732   2.0000                                         
     3  1  1.50       -55.6373   6.0000                                         
     3  2  2.50        -3.8151   7.0000                                         
     4  0  0.50        -4.2551   1.0000                                         
     4  1  1.50        -3.4015   0.0000                                         
     4  3  2.50        -1.3606   0.0000                                         
   Description                                                                  
     l       E           TYP  RCUT    TYP  RCUT                                 
     2     -3.8151135     23  2.300                                             
     2     -5.1756961     23  2.300                                             
     0     -4.2550963     23  2.300                                             
     0      7.2035603     23  2.300                                             
     1     -2.7211652     23  2.300                                             
     1     18.4316424     23  2.300                                             
  local pseudopotential read in
  partial core-charges read in
  partial kinetic energy density read in
  atomic valenz-charges read in
  non local Contribution for L=           2  read in
    real space projection operators read in
  non local Contribution for L=           2  read in
    real space projection operators read in
  non local Contribution for L=           0  read in
    real space projection operators read in
  non local Contribution for L=           0  read in
    real space projection operators read in
  non local Contribution for L=           1  read in
    real space projection operators read in
  non local Contribution for L=           1  read in
    real space projection operators read in
    PAW grid and wavefunctions read in
 
   number of l-projection  operators is LMAX  =           6
   number of lm-projection operators is LMMAX =          18
 
  PAW_PBE Fe 06Sep2000                  :
 energy of atom  1       EATOM= -594.3153
 kinetic energy error for atom=    0.0205 (will be added to EATOM!!)
 
 
 POSCAR: header                                  
  positions in cartesian coordinates
  No initial velocities read in
 exchange correlation table for  LEXCH =        8
   RHO(1)=    0.500       N(1)  =     2000
   RHO(2)=  100.500       N(2)  =     4000
 


--------------------------------------------------------------------------------------------------------


 ion  position               nearest neighbor table
   1  0.000  0.000  0.000-   2 2.44   4 2.44   2 2.44   4 2.44   2 2.44   2 2.44   3 2.82   3 2.82

   2  0.500  0.500  0.000-   1 2.44   3 2.44   1 2.44   3 2.44   1 2.44   1 2.44   4 2.82   4 2.82

   3  0.500  0.000  0.091-   4 2.44   2 2.44   4 2.44   2 2.44   6 2.44   4 2.44   6 2.44   4 2.44
                             1 2.82   5 2.82   1 2.82   5 2.82
   4  0.000  0.500  0.091-   3 2.44   1 2.44   3 2.44   1 2.44   5 2.44   3 2.44   5 2.44   3 2.44
                             2 2.82   6 2.82   2 2.82   6 2.82
   5  0.000  0.000  0.181-   6 2.44   8 2.44   6 2.44   8 2.44   4 2.44   6 2.44   4 2.44   6 2.44
                             7 2.82   3 2.82   7 2.82   3 2.82
   6  0.500  0.500  0.181-   5 2.44   7 2.44   5 2.44   7 2.44   3 2.44   5 2.44   3 2.44   5 2.44
                             8 2.82   4 2.82   8 2.82   4 2.82
   7  0.500  0.000  0.272-   8 2.44   6 2.44   8 2.44   6 2.44   8 2.44  10 2.44   8 2.44  10 2.44
                             5 2.82   5 2.82   9 2.82   9 2.82
   8  0.000  0.500  0.272-   7 2.44   5 2.44   7 2.44   5 2.44   7 2.44   9 2.44   7 2.44   9 2.44
                             6 2.82   6 2.82  10 2.82  10 2.82
   9  0.000  0.000  0.363-  10 2.44  12 2.44  10 2.44  12 2.44  10 2.44   8 2.44  10 2.44   8 2.44
                            11 2.82  11 2.82   7 2.82   7 2.82
  10  0.500  0.500  0.363-   9 2.44  11 2.44   9 2.44  11 2.44   9 2.44   7 2.44   9 2.44   7 2.44
                            12 2.82  12 2.82   8 2.82   8 2.82
  11  0.500  0.000  0.454-  12 2.44  10 2.44  12 2.44  10 2.44  12 2.44  12 2.44   9 2.82   9 2.82

  12  0.000  0.500  0.454-  11 2.44   9 2.44  11 2.44   9 2.44  11 2.44  11 2.44  10 2.82  10 2.82

 
  LATTYP: Found a simple orthorhombic cell.
 ALAT       =     2.8188897900
 B/A-ratio  =     1.4142135617
 C/A-ratio  =     7.7925289942
  
  Lattice vectors:
  
 A1 = (   0.0000000000,  -2.8188897900,   0.0000000000)
 A2 = (  -3.9865121700,   0.0000000000,   0.0000000000)
 A3 = (   0.0000000000,   0.0000000000, -21.9662804200)


Analysis of symmetry for initial positions (statically):
=====================================================================
 Subroutine PRICEL returns following result:
 
  LATTYP: Found a base centered orthorhombic cell.
 ALAT       =     2.8188897900
 B/A-ratio  =     1.4142135617
 C/A-ratio  =     7.7925289942
  
  Lattice vectors:
  
 A1 = (   1.9932560850,  -1.4094448950,   0.0000000000)
 A2 = (  -1.9932560850,  -1.4094448950,   0.0000000000)
 A3 = (   0.0000000000,   0.0000000000, -21.9662804200)
 
   2 primitive cells build up your supercell.
 

 Routine SETGRP: Setting up the symmetry group for a 
 simple orthorhombic supercell.


 Subroutine GETGRP returns: Found  8 space group operations
 (whereof  4 operations were pure point group operations)
 out of a pool of  8 trial point group operations.


The static configuration has the point symmetry C_2v.
 The point group associated with its full space group is D_2h.


Analysis of symmetry for dynamics (positions and initial velocities):
=====================================================================
 Subroutine PRICEL returns following result:
 
  LATTYP: Found a base centered orthorhombic cell.
 ALAT       =     2.8188897900
 B/A-ratio  =     1.4142135617
 C/A-ratio  =     7.7925289942
  
  Lattice vectors:
  
 A1 = (   1.9932560850,  -1.4094448950,   0.0000000000)
 A2 = (  -1.9932560850,  -1.4094448950,   0.0000000000)
 A3 = (   0.0000000000,   0.0000000000, -21.9662804200)
 
   2 primitive cells build up your supercell.
 

 Routine SETGRP: Setting up the symmetry group for a 
 simple orthorhombic supercell.


 Subroutine GETGRP returns: Found  8 space group operations
 (whereof  4 operations were pure point group operations)
 out of a pool of  8 trial point group operations.


The dynamic configuration has the point symmetry C_2v.
 The point group associated with its full space group is D_2h.


Analysis of constrained symmetry for selective dynamics:
=====================================================================
 Subroutine PRICEL returns following result:
 
  LATTYP: Found a base centered orthorhombic cell.
 ALAT       =     2.8188897900
 B/A-ratio  =     1.4142135617
 C/A-ratio  =     7.7925289942
  
  Lattice vectors:
  
 A1 = (   1.9932560850,  -1.4094448950,   0.0000000000)
 A2 = (  -1.9932560850,  -1.4094448950,   0.0000000000)
 A3 = (   0.0000000000,   0.0000000000, -21.9662804200)
 
   2 primitive cells build up your supercell.
 

 Routine SETGRP: Setting up the symmetry group for a 
 simple orthorhombic supercell.


 Subroutine GETGRP returns: Found  4 space group operations
 (whereof  4 operations were pure point group operations)
 out of a pool of  8 trial point group operations.


The constrained configuration has the point symmetry C_2v.


Analysis of magnetic symmetry:
=====================================================================

 Subroutine MAGSYM returns: Found  4 space group operations
 (whereof  4 operations were pure point group operations)
 out of a pool of  4 trial space group operations
 (whereof  4 operations were pure point group operations)
 and found also     2 'primitive' translations


The magnetic configuration has the point symmetry C_2v.


 irot  :   1
 --------------------------------------------------------------------
 isymop:   1   0   0
           0   1   0
           0   0   1

 gtrans:     0.0000000     0.0000000     0.0000000

 ptrans:     0.0000000     0.0000000     0.0000000
 rotmap:
 (   1->   1)  (   2->   2)  (   3->   3)  (   4->   4)  (   5->   5) 
 (   6->   6)  (   7->   7)  (   8->   8)  (   9->   9)  (  10->  10) 
 (  11->  11)  (  12->  12) 

 ptrans:     0.5000000     0.5000000     0.0000000
 rotmap:
 (   1->   2)  (   2->   1)  (   3->   4)  (   4->   3)  (   5->   6) 
 (   6->   5)  (   7->   8)  (   8->   7)  (   9->  10)  (  10->   9) 
 (  11->  12)  (  12->  11) 


 irot  :   2
 --------------------------------------------------------------------
 isymop:  -1   0   0
           0  -1   0
           0   0   1

 gtrans:     0.0000000     0.0000000     0.0000000

 ptrans:     0.0000000     0.0000000     0.0000000
 rotmap:
 (   1->   1)  (   2->   2)  (   3->   3)  (   4->   4)  (   5->   5) 
 (   6->   6)  (   7->   7)  (   8->   8)  (   9->   9)  (  10->  10) 
 (  11->  11)  (  12->  12) 

 ptrans:     0.5000000     0.5000000     0.0000000
 rotmap:
 (   1->   2)  (   2->   1)  (   3->   4)  (   4->   3)  (   5->   6) 
 (   6->   5)  (   7->   8)  (   8->   7)  (   9->  10)  (  10->   9) 
 (  11->  12)  (  12->  11) 


 irot  :   3
 --------------------------------------------------------------------
 isymop:  -1   0   0
           0   1   0
           0   0   1

 gtrans:     0.0000000     0.0000000     0.0000000

 ptrans:     0.0000000     0.0000000     0.0000000
 rotmap:
 (   1->   1)  (   2->   2)  (   3->   3)  (   4->   4)  (   5->   5) 
 (   6->   6)  (   7->   7)  (   8->   8)  (   9->   9)  (  10->  10) 
 (  11->  11)  (  12->  12) 

 ptrans:     0.5000000     0.5000000     0.0000000
 rotmap:
 (   1->   2)  (   2->   1)  (   3->   4)  (   4->   3)  (   5->   6) 
 (   6->   5)  (   7->   8)  (   8->   7)  (   9->  10)  (  10->   9) 
 (  11->  12)  (  12->  11) 


 irot  :   4
 --------------------------------------------------------------------
 isymop:   1   0   0
           0  -1   0
           0   0   1

 gtrans:     0.0000000     0.0000000     0.0000000

 ptrans:     0.0000000     0.0000000     0.0000000
 rotmap:
 (   1->   1)  (   2->   2)  (   3->   3)  (   4->   4)  (   5->   5) 
 (   6->   6)  (   7->   7)  (   8->   8)  (   9->   9)  (  10->  10) 
 (  11->  11)  (  12->  12) 

 ptrans:     0.5000000     0.5000000     0.0000000
 rotmap:
 (   1->   2)  (   2->   1)  (   3->   4)  (   4->   3)  (   5->   6) 
 (   6->   5)  (   7->   8)  (   8->   7)  (   9->  10)  (  10->   9) 
 (  11->  12)  (  12->  11) 
 
 
 KPOINTS: K-Points                                

Automatic generation of k-mesh.
Space group operators:
 irot       det(A)        alpha          n_x          n_y          n_z        tau_x        tau_y        tau_z
    1     1.000000     0.000000     1.000000     0.000000     0.000000     0.000000     0.000000     0.000000
    2     1.000000   180.000000     0.000000     0.000000     1.000000     0.000000     0.000000     0.000000
    3    -1.000000   180.000000     1.000000     0.000000     0.000000     0.000000     0.000000     0.000000
    4    -1.000000   180.000000     0.000000     1.000000     0.000000     0.000000     0.000000     0.000000
 
 Subroutine IBZKPT returns following result:
 ===========================================
 
 Found      4 irreducible k-points:
 
 Following reciprocal coordinates:
            Coordinates               Weight
  0.000000  0.000000  0.000000      1.000000
  0.333333  0.000000  0.000000      2.000000
  0.000000  0.333333  0.000000      2.000000
  0.333333  0.333333  0.000000      4.000000
 
 Following cartesian coordinates:
            Coordinates               Weight
  0.000000  0.000000  0.000000      1.000000
  0.083615  0.000000  0.000000      2.000000
  0.000000  0.118250  0.000000      2.000000
  0.083615  0.118250  0.000000      4.000000
 


--------------------------------------------------------------------------------------------------------




 Dimension of arrays:
   k-points           NKPTS =      4   k-points in BZ     NKDIM =      4   number of bands    NBANDS=     63
   number of dos      NEDOS =    301   number of ions     NIONS =     12
   non local maximal  LDIM  =      6   non local SUM 2l+1 LMDIM =     18
   total plane-waves  NPLWV =  27216
   max r-space proj   IRMAX =      1   max aug-charges    IRDMAX=   4127
   dimension x,y,z NGX =    18 NGY =   14 NGZ =  108
   dimension x,y,z NGXF=    36 NGYF=   28 NGZF=  216
   support grid    NGXF=    36 NGYF=   28 NGZF=  216
   ions per type =              12
 NGX,Y,Z   is equivalent  to a cutoff of   7.51,  8.26,  8.17 a.u.
 NGXF,Y,Z  is equivalent  to a cutoff of  15.01, 16.51, 16.35 a.u.


 I would recommend the setting:
   dimension x,y,z NGX =    18 NGY =   13 NGZ =  101
 SYSTEM =  Crystal                                 
 POSCAR =  header                                  

 Startparameter for this run:
   NWRITE =      2    write-flag & timer
   PREC   = normal    normal or accurate (medium, high low for compatibility)
   ISTART =      0    job   : 0-new  1-cont  2-samecut
   ICHARG =      2    charge: 1-file 2-atom 10-const
   ISPIN  =      2    spin polarized calculation?
   LNONCOLLINEAR =      F non collinear calculations
   LSORBIT =      F    spin-orbit coupling
   INIWAV =      1    electr: 0-lowe 1-rand  2-diag
   LASPH  =      F    aspherical Exc in radial PAW
   METAGGA=      F    non-selfconsistent MetaGGA calc.

 Electronic Relaxation 1
   ENCUT  =  350.0 eV  25.72 Ry    5.07 a.u.   6.08  4.30 33.51*2*pi/ulx,y,z
   ENINI  =  350.0     initial cutoff
   ENAUG  =  511.4 eV  augmentation charge cutoff
   NELM   =     60;   NELMIN=  4; NELMDL=-10     # of ELM steps 
   EDIFF  = 0.1E-04   stopping-criterion for ELM
   LREAL  =      F    real-space projection
   NLSPLINE    = F    spline interpolate recip. space projectors
   LCOMPAT=      F    compatible to vasp.4.4
   GGA_COMPAT  = T    GGA compatible to vasp.4.4-vasp.4.6
   LMAXPAW     = -100 max onsite density
   LMAXMIX     =    2 max onsite mixed and CHGCAR
   VOSKOWN=      0    Vosko Wilk Nusair interpolation
   ROPT   =    0.00000
 Ionic relaxation
   EDIFFG = -.1E-01   stopping-criterion for IOM
   NSW    =    300    number of steps for IOM
   NBLOCK =      1;   KBLOCK =    300    inner block; outer block 
   IBRION =      2    ionic relax: 0-MD 1-quasi-New 2-CG
   NFREE  =      1    steps in history (QN), initial steepest desc. (CG)
   ISIF   =      2    stress and relaxation
   IWAVPR =     11    prediction:  0-non 1-charg 2-wave 3-comb
   ISYM   =      2    0-nonsym 1-usesym 2-fastsym
   LCORR  =      T    Harris-Foulkes like correction to forces

   POTIM  = 0.5000    time-step for ionic-motion
   TEIN   =    0.0    initial temperature
   TEBEG  =    0.0;   TEEND  =   0.0 temperature during run
   SMASS  =  -3.00    Nose mass-parameter (am)
   estimated Nose-frequenzy (Omega)   =  0.10E-29 period in steps =****** mass=  -0.363E-27a.u.
   SCALEE = 1.0000    scale energy and forces
   NPACO  =    256;   APACO  = 16.0  distance and # of slots for P.C.
   PSTRESS=    0.0 pullay stress

  Mass of Ions in am
   POMASS =  55.85
  Ionic Valenz
   ZVAL   =   8.00
  Atomic Wigner-Seitz radii
   RWIGS  =  -1.00
  virtual crystal weights 
   VCA    =   1.00
   NELECT =      96.0000    total number of electrons
   NUPDOWN=      -1.0000    fix difference up-down

 DOS related values:
   EMIN   =  10.00;   EMAX   =-10.00  energy-range for DOS
   EFERMI =   0.00
   ISMEAR =     2;   SIGMA  =   0.10  broadening in eV -4-tet -1-fermi 0-gaus

 Electronic relaxation 2 (details)
   IALGO  =     68    algorithm
   LDIAG  =      T    sub-space diagonalisation (order eigenvalues)
   LSUBROT=      T    optimize rotation matrix (better conditioning)
   TURBO    =      0    0=normal 1=particle mesh
   IRESTART =      0    0=no restart 2=restart with 2 vectors
   NREBOOT  =      0    no. of reboots
   NMIN     =      0    reboot dimension
   EREF     =   0.00    reference energy to select bands
   IMIX   =      4    mixing-type and parameters
     AMIX     =   0.40;   BMIX     =  1.00
     AMIX_MAG =   1.60;   BMIX_MAG =  1.00
     AMIN     =   0.10
     WC   =   100.;   INIMIX=   1;  MIXPRE=   1;  MAXMIX= -45

 Intra band minimization:
   WEIMIN = 0.0010     energy-eigenvalue tresh-hold
   EBREAK =  0.40E-07  absolut break condition
   DEPER  =   0.30     relativ break condition  

   TIME   =   0.40     timestep for ELM

  volume/ion in A,a.u.               =      20.57       138.82
  Fermi-wavevector in a.u.,A,eV,Ry     =   1.194967  2.258161 19.428395  1.427947
  Thomas-Fermi vector in A             =   2.330944
 
 Write flags
   LWAVE  =      F    write WAVECAR
   LCHARG =      F    write CHGCAR
   LVTOT  =      F    write LOCPOT, total local potential
   LVHAR  =      F    write LOCPOT, Hartree potential only
   LELF   =      F    write electronic localiz. function (ELF)
   LORBIT =      0    0 simple, 1 ext, 2 COOP (PROOUT)


 Dipole corrections
   LMONO  =      F    monopole corrections only (constant potential shift)
   LDIPOL =      F    correct potential (dipole corrections)
   IDIPOL =      0    1-x, 2-y, 3-z, 4-all directions 
   EPSILON=  1.0000000 bulk dielectric constant

 Exchange correlation treatment:
   GGA     =    --    GGA type
   LEXCH   =     8    internal setting for exchange type
   VOSKOWN=      0    Vosko Wilk Nusair interpolation
   LHFCALC =     F    Hartree Fock is set to
   LHFONE  =     F    Hartree Fock one center treatment
   AEXX    =    0.0000 exact exchange contribution

 Linear response parameters
   LEPSILON=     F    determine dielectric tensor
   LRPA    =     F    only Hartree local field effects (RPA)
   LNABLA  =     F    use nabla operator in PAW spheres
   LVEL    =     F    velocity operator in full k-point grid
   LINTERFAST=   F  fast interpolation
   KINTER  =     0    interpolate to denser k-point grid
   CSHIFT  =0.1000    complex shift for real part using Kramers Kronig
   OMEGAMAX=  -1.0    maximum frequency
   DEG_THRESHOLD= 0.2000000E-02 threshold for treating states as degnerate
   RTIME   =    0.100 relaxation time in fs

 Orbital magnetization related:
   ORBITALMAG=     F  switch on orbital magnetization
   LCHIMAG   =     F  perturbation theory with respect to B field
   DQ        =  0.001000  dq finite difference perturbation B field



--------------------------------------------------------------------------------------------------------


 conjugate gradient relaxation of ions
   using selective dynamics as specified on POSCAR
   WARNING: If single coordinates had been selected the selection of coordinates
            is made according to the corresponding   d i r e c t   coordinates!
            Don't support selection of single cartesian coordinates -- sorry ...
  !
 charge density and potential will be updated during run
 spin polarized calculation
 RMM-DIIS sequential band-by-band and
  variant of blocked Davidson during initial phase
 perform sub-space diagonalisation
    before iterative eigenvector-optimisation
 modified Broyden-mixing scheme, WC =      100.0
 initial mixing is a Kerker type mixing with AMIX =  0.4000 and BMIX =      1.0000
 Hartree-type preconditioning will be used
 using additional bands           15
 reciprocal scheme for non local part
 use partial core corrections
 calculate Harris-corrections to forces 
   (improved forces if not selfconsistent)
 use gradient corrections 
 use of overlap-Matrix (Vanderbilt PP)
 Methfessel and Paxton  Order N= 2 SIGMA  =   0.10


--------------------------------------------------------------------------------------------------------


  energy-cutoff  :      350.00
  volume of cell :      246.85
      direct lattice vectors                 reciprocal lattice vectors
     3.986512170  0.000000000  0.000000000     0.250845842  0.000000000  0.000000000
     0.000000000  2.818889790  0.000000000     0.000000000  0.354749591  0.000000000
     0.000000000  0.000000000 21.966280420     0.000000000  0.000000000  0.045524321

  length of vectors
     3.986512170  2.818889790 21.966280420     0.250845842  0.354749591  0.045524321


 
 k-points in units of 2pi/SCALE and weight: K-Points                                
   0.00000000  0.00000000  0.00000000       0.111
   0.08361528  0.00000000  0.00000000       0.222
   0.00000000  0.11824986  0.00000000       0.222
   0.08361528  0.11824986  0.00000000       0.444
 
 k-points in reciprocal lattice and weights: K-Points                                
   0.00000000  0.00000000  0.00000000       0.111
   0.33333333  0.00000000  0.00000000       0.222
   0.00000000  0.33333333  0.00000000       0.222
   0.33333333  0.33333333  0.00000000       0.444
 
 position of ions in fractional coordinates (direct lattice) 
   0.00000000  0.00000000  0.00000000
   0.50000000  0.50000000  0.00000000
   0.50000000  0.00000000  0.09074163
   0.00000000  0.50000000  0.09074163
   0.00000000  0.00000000  0.18148326
   0.50000000  0.50000000  0.18148326
   0.50000000  0.00000000  0.27222489
   0.00000000  0.50000000  0.27222489
   0.00000000  0.00000000  0.36296652
   0.50000000  0.50000000  0.36296652
   0.50000000  0.00000000  0.45370815
   0.00000000  0.50000000  0.45370815
 
 position of ions in cartesian coordinates  (Angst):
   0.00000000  0.00000000  0.00000000
   1.99325608  1.40944489  0.00000000
   1.99325608  0.00000000  1.99325608
   0.00000000  1.40944489  1.99325608
   0.00000000  0.00000000  3.98651217
   1.99325608  1.40944489  3.98651217
   1.99325608  0.00000000  5.97976825
   0.00000000  1.40944489  5.97976825
   0.00000000  0.00000000  7.97302434
   1.99325608  1.40944489  7.97302434
   1.99325608  0.00000000  9.96628042
   0.00000000  1.40944489  9.96628042
 


--------------------------------------------------------------------------------------------------------


 k-point  1 :   0.0000 0.0000 0.0000  plane waves:    3707
 k-point  2 :   0.3333 0.0000 0.0000  plane waves:    3680
 k-point  3 :   0.0000 0.3333 0.0000  plane waves:    3636
 k-point  4 :   0.3333 0.3333 0.0000  plane waves:    3673

 maximum and minimum number of plane-waves per node :      3707     3636

 maximum number of plane-waves:      3707
 maximum index in each direction: 
   IXMAX=    6   IYMAX=    4   IZMAX=   33
   IXMIN=   -6   IYMIN=   -4   IZMIN=  -33

 WARNING: aliasing errors must be expected set NGX to  26 to avoid them
 WARNING: aliasing errors must be expected set NGY to  18 to avoid them
 WARNING: aliasing errors must be expected set NGZ to 134 to avoid them
 aliasing errors are usually negligible using standard VASP settings
 and one can safely disregard these warnings

 serial   3D FFT for wavefunctions
 parallel 3D FFT for charge:
    minimum data exchange during FFTs selected (reduces bandwidth)


 total amount of memory used by VASP on root node    90300. kBytes
========================================================================

   base      :      30000. kBytes
   nonl-proj :       2846. kBytes
   fftplans  :       7472. kBytes
   grid      :      17974. kBytes
   one-center:        373. kBytes
   wavefun   :      31635. kBytes
 
 Broyden mixing: mesh for mixing (old mesh)
   NGX = 13   NGY =  9   NGZ = 67
  (NGX  = 36   NGY  = 28   NGZ  =216)
  gives a total of   7839 points

 initial charge density was supplied:
 charge density of overlapping atoms calculated
 number of electron      96.0000000 magnetization      12.0000000
 keeping initial charge density in first step


--------------------------------------------------------------------------------------------------------


 Maximum index for augmentation-charges         3812 (set IRDMAX)


--------------------------------------------------------------------------------------------------------


 First call to EWALD:  gamma=   0.283
 Maximum number of real-space cells 4x 6x 1
 Maximum number of reciprocal cells 2x 2x 8

 FEWALD executed in parallel
    FEWALD:  cpu time    0.00: real time    0.00


----------------------------------------- Iteration    1(   1)  ---------------------------------------


    POTLOK:  cpu time    0.32: real time    0.32
    SETDIJ:  cpu time    0.10: real time    0.10
     EDDAV:  cpu time   14.06: real time   14.07
       DOS:  cpu time    0.00: real time    0.00
    --------------------------------------------
      LOOP:  cpu time   14.48: real time   14.49

 eigenvalue-minimisations  :  1008
 total energy-change (2. order) : 0.7188209E+03  (-0.3221410E+04)
 number of electron      96.0000000 magnetization      12.0000000
 augmentation part       96.0000000 magnetization      12.0000000

 Free energy of the ion-electron system (eV)
  ---------------------------------------------------
  alpha Z        PSCENC =       403.18038838
  Ewald energy   TEWEN  =     21994.89367358
  -1/2 Hartree   DENC   =    -29536.29041113
  -exchange  EXHF       =         0.00000000
  -V(xc)+E(xc)   X  RMM-DIIS:  cpu time    8.95: real time    8.96
    ORTHCH:  cpu time    0.13: real time    0.13
       DOS:  cpu time    0.00: real time    0.00
    CHARGE:  cpu time    1.28: real time    1.28
    MIXING:  cpu time    0.01: real time    0.01
    --------------------------------------------
      LOOP:  cpu time   13.44: real time   13.45

 eigenvalue-minimisations  :   823
 total energy-change (2. order) : 0.4320591E+01  (-0.9074552E+01)
 number of electron      96.0000818 magnetization      11.5311075
 augmentation part       51.8880253 magnetization      10.0709566

 Broyden mixing:
  rms(total) = 0.72545E+01    rms(broyden)= 0.72539E+01
  rms(prec ) = 0.92761E+01
  weight for this iteration     100.00

 eigenvalues of (default mixing * dielectric matrix)
  average eigenvalue GAMMA=   0.2751
  0.5708  0.1981  0.1981  0.1332

 Free energy of the ion-electron system (eV)
  ---------------------------------------------------
  alpha Z        PSCENC =       328.78290224
  Ewald energy   TEWEN  =     19259.87496258
  -1/2 Hartree   DENC   =    -26460.10360119
  -exchange  EXHF       =         0.00000000
  -V(xc)+E(xc)   XCENC  =        37.15514196
  PAW double counting   =      7440.37587165    -7521.21231397
  entropy T*S    EENTRO =        -0.00026448
  eigenvalues    EBANDS =      -335.23943405
  atomic energy  EATOM  =      7131.53793727
  ---------------------------------------------------
  free energy    TOTEN  =      -118.82879800 eV

  energy without entropy =     -118.82853352  energy(sigma->0) =     -118.82873188
---------------------------------




----------------------------------------- Iteration    1(  51)  ---------------------------------------


    POTLOK:  cpu time    0.34: real time    0.34
    SETDIJ:  cpu time    0.07: real time    0.07
    EDDIAG:  cpu time    1.95: real time    1.95
  RMM-DIIS:  cpu time    6.38: real time    6.38
    ORTHCH:  cpu time     EDDAV:  cpu time   14.04: real time   14.06
       DOS:  cpu time    0.00: real time    0.00
    --------------------------------------------
      LOOP:  cpu time   14.05: real time   14.06

 eigenvalue-minimisations  :  1008
 total energy-change (2. order) :-0.7550649E+03  (-0.7227757E+03)
 number of electron      96.0000000 magnetization      12.0000000
 augmentation part       96.0000000 magnetization      12.0000000

 Free ener  RMM-DIIS:  cpu time    8.63: real time    8.64
    ORTHCH:  cpu time    0.13: real time    0.13
       DOS:  cpu time    0.00: real time    0.00
    CHARGE:  cpu time    1.28: real time    1.29
    MIXING:  cpu time    0.01: real time    0.01
    --------------------------------------------
      LOOP:  cpu time   13.10: real time   13.11

 eigenvalue-minimisations  :   786
 total energy-change (2. order) :-0.7816790E+00  (-0.2454502E+01)
 number of electron      96.0000803 magnetization      11.4171226
 augmentation part       51.0566895 magnetization       9.8180109

 Broyden mixing:
  rms(total) = 0.67702E+01    rms(broyden)= 0.67695E+01
  rms(prec ) = 0.10474E+02
  weight for this iteration     100.00

 eigenvalues of (default mixing * dielectric matrix)
  average eigenvalue GAMMA=   0.2525
  0.6309  0.1922  0.1922  0.1574  0.0898

 Free energy of the ion-electron system (eV)
  ---------------------------------------------------
  alpha Z        PSCENC =       328.78290224
  Ewald energy   TEWEN  =     19259.87496258
  -1/2 Hartree   DENC   =    -26522.92395179
  -exchange  EXHF       =         0.00000000
  -V(xc)+E(xc)   XCENC  =        37.13410891
  PAW double counting   =      7697.89718704    -7790.28206600
  entropy T*S    EENTRO =        -0.01147775
  eigenvalues    EBANDS =      -261.62007952
  atomic energy  EATOM  =      7131.53793727
  ---------------------------------------------------
  free energy    TOTEN  =      -119.61047702 eV

  energy without entropy =     -119.59899927  energy(sigma->0) =     -119.60760758
  POTLOK:  cpu time    0.34: real time    0.34
    SETDIJ:  cpu time    0.07: real time    0.07
    EDDIAG:  cpu time    1.94: real time    1.94
  RMM-DIIS:  cpu time    6.66: real time    6.67
    ORTHCH:  cpu time    0.08: real time    0.08
       DOS:  cpu time    0.00: real time    0.00
    CHARGE:  cpu time    0.98: real time    0.98
    MIXING:  cpu time     EDDAV:  cpu time   15.67: real time   15.68
       DOS:  cpu time    0.00: real time    0.00
    --------------------------------------------
      LOOP:  cpu time   15.67: real time   15.69

 eigenvalue-minimisations  :  1172
 total energy-change (2. order) :-0.6299283E+02  (-0.5466185E+02)
 number of electron      96.0000000 magnetization      12.0000000
 augmentation part       96.0000000 magnetization      12.0000000

 Free energy of the ion-electron system (eV)
  ---------------------------------------------------
  alpha Z        PSCENC =       403.18038838
  Ewald energy   TEWEN  =     21994.89367358
  -1/2 Hartree   DENC   =    -29536.29041113
  -exchange  EXHF       =         0.00000000
  -V(xc)+E(xc)   XCENC  =        46.39140245
  PAW double counting   =      6656.72073468    -6749.17102895
  entropy T*S    EENTRO =        -0.00256509
  eigenvalues    EBANDS =       -46.49692650
  atomic energy  EATOM  =      7131.53793727
  ---------------------------------------------------
  free energy    TOTEN  =       -99.23679532 eV

  energy without entropy =      -99.23423023  energy(sigma->0) =      -99.23615405
DENC   =    -15820.02172291
  -exchange  EXHF       =         0.00000000
  -V(xc)+E(xc)   XCENC  =        35.70391399
  PAW double counting   =      5927.12109456    -6006.98643321
  entropy T*S    EENTRO =        -0.01204585
  eigenvalues    EBANDS =      -182.11319466
  atomic energy  EATOM  =      5348.65345295
  ---------------------------------------------------
  free energy    TOTEN  =       -64.94275567 eV

  energy without entropy =      -64.93070981  energy(sigma->0) =      -64.93974420


--------------------------------------------------------------------------------------------------------




----------------------------------------- Iteration    1(  53)  ---------------------------------------


    POTLOK:  cpu time    0.34: real time    0.34
    SETDIJ:  cpu time    0.08: real time    0.07
    EDDIAG:  cpu time    1.94: real time    1.94
  RMM-DIIS:  cpu time    6.44: real time    6.44
    ORTHCH:  cpu time    0.08: real time    0.08
       DOS:  cpu time    0.00: real time    0.00
    CHARGE:  cpu time    0.98: real time    0.98
    MIXING:  cpu time    0.09: real time    0.09
    --------------------------------------------
      LOOP:  cpu time  RMM-DIIS:  cpu time    8.43: real time    8.43
    ORTHCH:  cpu time    0.13: real time    0.13
       DOS:  cpu time    0.00: real time    0.00
    CHARGE:  cpu time    1.28: real time    1.28
    MIXING:  cpu time     EDDAV:  cpu time   20.39: real time   20.41
       DOS:  cpu time    0.00: real time    0.00
    --------------------------------------------
      LOOP:  cpu time   20.40: real time   20.42

 eigenvalue-minimisations  :  1656
 total energy-change (2. order) :-0.8162329E+01  (-0.7285159E+01)
 number of electron      96.0000000 magnetization      12.0000000
 augmentation part       96.0000000 magnetization      12.0000000

 Free energy of the ion-electron system (eV)
  ---------------------------------------------------
  alpha Z        PSCENC =       403.18038838
  Ewald energy   TEWEN  =     21994.89367358
  -1/2 Hartree   DENC   =    -29536.29041113
  -exchange  EXHF       =         0.00000000
  -V(xc)+E(xc)   XCENC  =        46.39140245
  PAW double counting   =      6656.72073468    -6749.17102895
  entropy T*S    EENTRO =         0.00913509
  eigenvalues    EBANDS =       -54.67095606
  atomic energy  EATOM  =      7131.53793727
  ---------------------------------------------------
  free energy    TOTEN  =      -107.39912470 eV

  energy without entropy =     -107.40825979  energy(sigma->0) =     -107.40140847
M  =      7131.53793727
  ---------------------------------------------------
  free energy    TOTEN  =       -91.62325966 eV

  energy without entropy =      -91.60608911  energy(sigma->0) =      -91.61896702
-------------------------------------------------------------------------------------------




----------------------------------------- Iteration    1(  54)  ---------------------------------------


    POTLOK:  cpu time    0.34: real time    0.34
    SETDIJ:  cpu time    0.07: real time    0.07
    EDDIAG:  cpu time    1.96: real time    1.95
  RMM-DIIS:  cpu time    5.88: real time    5.88
    ORTHCH:  cpu time    0.08: real time    0.08
       DOS:  cpu time    0.00: real time    0.00
    CHARGE:  cpu time    0.98: real time    0.98
    MIXING:  cpu time    0.09: real time    0.09
    --------------------------------------------
      LOOP:  cpu time    9.39: real time    9.40

 eigenvalue-minimisa  RMM-DIIS:  cpu time    8.82: real time    8.82
    ORTHCH:  cpu time    0.13: real time    0.13
       DOS:  cpu time    0.00: real time    0.00
    CHARGE:  cpu time    1.29: real time    1.29
    MIXING:  cpu time    0.01: real time    0.01
    --------------------------------------------
      LOOP:  cpu time   13.31: real time   13.32

 eigenvalue-minimisations  :   808
 total energy-change (2. order) :-0.4200073E+01  (-0.1684055E+01)
 number of electron      96.0000839 magnetization      11.4214878
 augmentation part       49.6387789 magnetization       8.5164330

 Broyden mixing:
  rms(total) = 0.40698E+01    rms(broyden)= 0.40686E+01
  rms(prec ) = 0.53849E+01
  weight for this iteration     100.00

 eigenvalues of (default mixing * dielectric matrix)
  average eigenvalue GAMMA=   0.2984
  1.0766  0.2922  0.2077  0.2077  0.1281  0.1281  0.0484

 Free energy of the ion-electron system (eV)
  ---------------------------------------------------
  alpha Z        PSCENC =       328.78290224
  Ewald energy   TEWEN  =     19259.87496258
  -1/2 Hartree   DENC   =    -26555.76478124
  -exchange  EXHF       =         0.00000000
  -V(xc)+E(xc)   XCENC  =        37.73528723
  PAW double counting   =      7898.98012455    -7997.89602563
  entropy T*S    EENTRO =         0.00262170
  eigenvalues    EBANDS =      -199.07636145
  atomic energy  EATOM  =      7131.53793727
  ---------------------------------------------------
  free energy    TOTEN  =       -95.82333276 eV

  energy without entropy =      -95.82595446  energy(sigma->0) =      -95.82398819
------------------------------------------




----------------------------------------- Iteration    1(  55)  ---------------------------------------


    POTLOK:  cpu time    0.34: real time    0.34
    SETDIJ:  cpu time    0.07: real time    0.07
    EDDIAG:  cpu time    1.95: real time    1.95
  RMM-DIIS:  cpu time    6.21: real time    6.22
    ORTHCH:  cpu time    0.08: real time    0.08
       DOS:  cpu time    0.00: real time    0.00
    CHARGE:  cpu time    0.98: real time    0.98
    MIXING:  cpu time    0.08: real time    0.09
    --------------------------------------------
      LOOP:  cpu time    9.72: real time    9.73

 eigenvalue-minimisations  :   595
 total energy-change (2. order) :-0.1978998E-02  (-0.2139400E-04)
 number of electr    EDDIAG:  cpu time    2.60: real time    2.61
  RMM-DIIS:  cpu time    8.50: real time    8.50
    ORTHCH:  cpu time    0.13: real time    0.13
       DOS:  cpu time    0.00: real time    0.00
    CHARGE:  cpu time    1.28: real time    1.28
    MIXING:  cpu time    0.02: real time    0.01
    --------------------------------------------
      LOOP:  cpu time   12.96: real time   12.98

 eigenvalue-minimisations  :   773
 total energy-change (2. order) : 0.6102882E+01  (-0.7430122E+00)
 number of electron      96.0000810 magnetization      11.5172563
 augmentation part       49.3816095 magnetization       7.3817673

 Broyden mixing:
  rms(total) = 0.19211E+01    rms(broyden)= 0.19189E+01
  rms(prec ) = 0.21165E+01
  weight for this iteration     100.00

 eigenvalues of (default mixing * dielectric matrix)
  average eigenvalue GAMMA=   0.2965
  1.1428  0.2897  0.2897  0.1988  0.1988  0.1200  0.0835  0.0483

 Free energy of the ion-electron system (eV)
  ---------------------------------------------------
  alpha Z        PSCENC =       328.78290224
  Ewald energy   TEWEN  =     19259.87496258
  -1/2 Hartree   DENC   =    -26556.25007902
  -exchange  EXHF       =         0.00000000
  -V(xc)+E(xc)   XCENC  =        37.74391796
  PAW double counting   =      7945.64361438    -8045.57720468
  entropy T*S    EENTRO =        -0.00865426
  eigenvalues    EBANDS =      -191.46784755
  atomic energy  EATOM  =      7131.53793727
  ---------------------------------------------------
  free energy    TOTEN  =       -89.72045108 eV

  energy without entropy =      -89.71179682  energy(sigma->0) =      -89.71828752
 time    0.34
    SETDIJ:  cpu time    0.07: real time    0.07
    EDDIAG:  cpu time    1.94: real time    1.94
  RMM-DIIS:  cpu time    6.14: real time    6.14
    ORTHCH:  cpu time    0.08: real time    0.08
       DOS:  cpu time    0.00: real time    0.00
    CHARGE:  cpu time     EDDAV:  cpu time   18.51: real time   18.53
       DOS:  cpu time    0.00: real time    0.00
    --------------------------------------------
      LOOP:  cpu time   18.52: real time   18.53

 eigenvalue-minimisations  :  1465
 total energy-change (2. order) :-0.4639912E+00  (-0.4441963E+00)
 number of electron      96.0000000 magnetization      12.0000000
 augmentation part       96.0000000 magnetization      12.0000000

 Free energy of the ion-electron system (eV)
  ---------------------------------------------------
  alpha Z        PSCENC =       403.18038838
  Ewald energy   TEWEN  =     21994.89367358
  -1/2 Hartree   DENC   =    -29536.29041113
  -exchange  EXHF       =         0.00000000
  -V(xc)+E(xc)   XCENC  =        46.39140245
  PAW double counting   =      6656.72073468    -6749.17102895
  entropy T*S    EENTRO =         0.00977962
  eigenvalues    EBANDS =       -55.13559174
  atomic energy  EATOM  =      7131.53793727
  ---------------------------------------------------
  free energy    TOTEN  =      -107.86311585 eV

  energy without entropy =     -107.87289547  energy(sigma->0) =     -107.86556076
N  =     10447.77179695
  -1/2 Hartree   DENC   =    -15818.64725146
  -exchange  EXHF       =         0.00000000
  -V(xc)+E(xc)   XCENC  =        35.71269348
  PAW double counting   =      5928.05179087    -6007.93311150
  entropy T*S    EENTRO =        -0.01235244
  eigenvalues    EBANDS =      -183.48468127
  atomic energy  EATOM  =      5348.65345295
  ---------------------------------------------------
  free energy    TOTEN  =       -64.94727990 eV

  energy without entropy =      -64.93492746  energy(sigma->0) =      -64.94419179


--------------------------------------------------------------------------------------------------------




----------------------------------------- Iteration    1(  57)  ---------------------------------------


    POTLOK:  cpu time    0.34: real time    0.34
    SETDIJ:  cpu time    0.07: real time    0.07
    EDDIAG:  cpu time    1.94: real time    1.95
  RMM-DIIS:  cpu time    4.76: real time    4.77
    ORTHCH:  cpu time    0.08: real time    0.08
       DOS:  cpu time    0.00: real time    0.00
    CHARGE:  cpu time    0.98: real time    0.98
    MIXING:  cpu time    0.09: real time    0.09
    --------------------------------------------
      LOOP:  cpu time    8.27: real time    8.28

 eigenvalue-minimisa  RMM-DIIS:  cpu time    9.50: real time    9.51
    ORTHCH:  cpu time    0.13: real time    0.13
       DOS:  cpu time    0.00: real time    0.00
    CHARGE:  cpu time    1.29: real time    1.29
    MIXING:  cpu time    0.02: real time    0.01
    --------------------------------------------
      LOOP:  cpu time   14.00: real time   14.01

 eigenvalue-minimisations  :   881
 total energy-change (2. order) :-0.1617035E+00  (-0.3910639E+00)
 number of electron      96.0000795 magnetization      11.5694667
 augmentation part       49.4264556 magnetization       7.3934063

 Broyden mixing:
  rms(total) = 0.17278E+01    rms(broyden)= 0.17273E+01
  rms(prec ) = 0.19187E+01
  weight for this iteration     100.00

 eigenvalues of (default mixing * dielectric matrix)
  average eigenvalue GAMMA=   0.2750
  1.1529  0.2820  0.2820  0.1944  0.1944  0.1207  0.1002  0.1002  0.0486

 Free energy of the ion-electron system (eV)
  ---------------------------------------------------
  alpha Z        PSCENC =       328.78290224
  Ewald energy   TEWEN  =     19259.87496258
  -1/2 Hartree   DENC   =    -26554.69264501
  -exchange  EXHF       =         0.00000000
  -V(xc)+E(xc)   XCENC  =        37.93635486
  PAW double counting   =      7971.25728892    -8071.49838188
  entropy T*S    EENTRO =         0.00286870
  eigenvalues    EBANDS =      -193.08344231
  atomic energy  EATOM  =      7131.53793727
  ---------------------------------------------------
  free energy    TOTEN  =       -89.88215463 eV

  energy without entropy =      -89.88502333  energy(sigma->0) =      -89.88287181
----------




----------------------------------------- Iteration    1(  58)  ---------------------------------------


    POTLOK:  cpu time    0.34: real time    0.34
    SETDIJ:  cpu time    0.07: real time    0.07
    EDDIAG:  cpu time    1.95: real time    1.95
  RMM-DIIS:  cpu time    4.22: real time    4.23
    ORTHCH:  cpu time    0.08: real time    0.08
       DOS:  cpu time    0.00: real time    0.00
    CHARGE:  cpu time     EDDAV:  cpu time   20.39: real time   20.41
       DOS:  cpu time    0.00: real time    0.00
    --------------------------------------------
      LOOP:  cpu time   20.40: real time   20.41

 eigenvalue-minimisations  :  1657
 total energy-change (2. order) :-0.3303425E-01  (-0.3109349E-01)
 number of electron      96.0000000 magnetization      12.0000000
 augmentation part       96.0000000 magnetization      12.0000000

 Free energy of the ion-electron system (eV)
  ---------------------------------------------------
  alpha Z        PSCENC =       403.18038838
  Ewald energy   TEWEN  =     21994.89367358
  -1/2 Hartree   DENC   =    -29536.29041113
  -exchange  EXHF       =         0.00000000
  -V(xc)+E(xc)   XCENC  =        46.39140245
  PAW double counting   =      6656.72073468    -6749.17102895
  entropy T*S    EENTRO =         0.00721420
  eigenvalues    EBANDS =       -55.16606057
  atomic energy  EATOM  =      7131.53793727
  ---------------------------------------------------
  free energy    TOTEN  =      -107.89615010 eV

  energy without entropy =     -107.90336430  energy(sigma->0) =     -107.89795365
ld energy   TEWEN  =     10447.77179695
  -1/2 Hartree   DENC   =    -15818.58984302
  -exchange  EXHF       =         0.00000000
  -V(xc)+E(xc)   XCENC  =        35.71145103
  PAW double counting   =      5928.16525208    -6008.05438572
  entropy T*S    EENTRO =        -0.01241460
  eigenvalues    EBANDS =      -183.53318357
  atomic energy  EATOM  =      5348.65345295
  ---------------------------------------------------
  free energy    TOTEN  =       -64.94749138 eV

  energy without entropy =      -64.93507678  energy(sigma->0) =      -64.94438773


--------------------------------------------------------------------------------------------------------




----------------------------------------- Iteration    1(  59)  ---------------------------------------


    POTLOK:  cpu time    0.34: real time    0.34
    SETDIJ:  cpu time    0.07: real time    0.07
    EDDIAG:  cpu time    1.94: real time    1.94
  RMM-DIIS:  cpu time    4.20: real time    4.21
    ORTHCH:  cpu time    0.08: real time    0.08
       DOS:  cpu time    0.00: real time    0.00
    CHARGE:  cpu time    0.98: real time    0.98
    MIXING:  cpu time    0.09: real time    0.09
    --------------------------------------------
      LOOP:  cpu time  RMM-DIIS:  cpu time    9.06: real time    9.07
    ORTHCH:  cpu time    0.13: real time    0.13
       DOS:  cpu time    0.00: real time    0.00
    CHARGE:  cpu time    1.28: real time    1.28
    MIXING:  cpu time    0.02: real time    0.02
    --------------------------------------------
      LOOP:  cpu time   13.54: real time   13.55

 eigenvalue-minimisations  :   833
 total energy-change (2. order) : 0.1094492E+00  (-0.4213524E-01)
 number of electron      96.0000799 magnetization      11.5020618
 augmentation part       49.4237477 magnetization       7.2865047

 Broyden mixing:
  rms(total) = 0.15956E+01    rms(broyden)= 0.15955E+01
  rms(prec ) = 0.16719E+01
  weight for this iteration     100.00

 eigenvalues of (default mixing * dielectric matrix)
  average eigenvalue GAMMA=   0.2508
  1.1538  0.2721  0.2721  0.1917  0.1917  0.1208  0.1063  0.1063  0.0498  0.0437

 Free energy of the ion-electron system (eV)
  ---------------------------------------------------
  alpha Z        PSCENC =       328.78290224
  Ewald energy   TEWEN  =     19259.87496258
  -1/2 Hartree   DENC   =    -26554.33987910
  -exchange  EXHF       =         0.00000000
  -V(xc)+E(xc)   XCENC  =        38.03438088
  PAW double counting   =      7979.35128344    -8079.70089860
  entropy T*S    EENTRO =         0.00242782
  eigenvalues    EBANDS =      -193.31582197
  atomic energy  EATOM  =      7131.53793727
  ---------------------------------------------------
  free energy    TOTEN  =       -89.77270545 eV

  energy without entropy =      -89.77513327  energy(sigma->0) =      -89.77331240
-------------------------------------------------------------------




----------------------------------------- Iteration    1(  60)  ---------------------------------------


    POTLOK:  cpu time    0.34: real time    0.34
    SETDIJ:  cpu time    0.07: real time    0.07
    EDDIAG:  cpu time    1.95: real time    1.95
  RMM-DIIS:  cpu time    4.36: real time    4.36
    ORTHCH:  cpu time    0.08: real time    0.08
       DOS:  cpu time    0.00: real time    0.00
    --------------------------------------------
      LOOP:  cpu time    POTLOK:  cpu time    0.34: real time    0.34
    SETDIJ:  cpu time    0.10: real time    0.10
    EDDIAG:  cpu time    2.59: real time    2.59
  RMM-DIIS:  cpu time   10.17: real time   10.18
    ORTHCH:  cpu time     EDDAV:  cpu time   18.90: real time   18.91
       DOS:  cpu time    0.00: real time    0.00
    --------------------------------------------
      LOOP:  cpu time   18.90: real time   18.91

 eigenvalue-minimisations  :  1505
 total energy-change (2. order) :-0.3645058E-02  (-0.3448567E-02)
 number of electron      96.0000000 magnetization      12.0000000
 augmentation part       96.0000000 magnetization      12.0000000

 Free energy of the ion-electron system (eV)
  ---------------------------------------------------
  alpha Z        PSCENC =       403.18038838
  Ewald energy   TEWEN  =     21994.89367358
  -1/2 Hartree   DENC   =    -29536.29041113
  -exchange  EXHF       =         0.00000000
  -V(xc)+E(xc)   XCENC  =        46.39140245
  PAW double counting   =      6656.72073468    -6749.17102895
  entropy T*S    EENTRO =         0.00646549
  eigenvalues    EBANDS =       -55.16895691
  atomic energy  EATOM  =      7131.53793727
  ---------------------------------------------------
  free energy    TOTEN  =      -107.89979516 eV

  energy without entropy =     -107.90626065  energy(sigma->0) =     -107.90141153
  37.97930251
  PAW double counting   =      7973.37341185    -8073.53025635
  entropy T*S    EENTRO =         0.00602550
  eigenvalues    EBANDS =      -193.61421878
  atomic energy  EATOM  =      7131.53793727
  ---------------------------------------------------
  free energy    TOTEN  =       -89.60954365 eV

  energy without entropy =      -89.61556915  energy(sigma->0) =      -89.61105002
.00000
      7      -4.1906      1.00000
      8      -3.9926      1.00000
      9      -3.8169      1.00000
     10      -3.6841      1.00000
     11      -3.6015      1.00000
     12      -3.6015      1.00000
     13      -3.5966      1.00000
     14      -3.5348      1.00000
     15      -3.5298      1.00000
     16      -3.5298      1.00000
     17      -3.4887      1.00000
     18      -3.4679      1.00000
     19      -3.4679      1.00000
     20      -3.2313      1.00000
     21      -3.0149      1.00000
     22      -3.0149      1.00000
     23      -2.8167      1.00000
     24      -2.7031      1.00000
     25      -2.7031      1.00000
     26      -2.4680      1.00000
     27      -2.4680      1.00000
     28      -2.3733      1.00000
     29      -2.2801      1.00000
     30      -2.2801      1.00000
     31      -2.1844      1.00000
     32      -2.1675      1.00000
     33      -2.0816      1.00000
     34      -1.9696      1.00000
     35      -1.9480      1.00000
     36      -1.8070      1.00000
     37      -1.7781      1.00000
     38      -1.7781      1.00000
     39      -1.7334      1.00000
     40      -1.4539      1.00000
     41      -1.3947      1.00000
     42      -1.3233      1.00000
     43      -1.2991      1.00000
     44      -1.2610      1.00000
     45      -0.9487      1.00000
     46      -0.7447      0.99934
     47      -0.7447      0.99934
     48      -0.5504      1.04895

 k-point   2 :       0.3333    0.0000    0.0000
  band No.  band energies     occupation 
      1      -6.4114      1.00000
      2      -5.4114      1.00000
      3      -4.5194      1.00000
      4      -4.4533      1.00000
      5      -4.1764      1.00000
      6      -3.9854      1.00000
      7      -3.9749      1.00000
      8      -3.9036      1.00000
      9      -3.8618      1.00000
     10      -3.7810      1.00000
     11      -3.6636      1.00000
     12      -3.5852      1.00000
     13      -3.4970      1.00000
     14      -3.4719      1.00000
     15      -3.4341      1.00000
     16      -3.4315      1.00000
     17      -3.3525      1.00000
     18      -3.3283      1.00000
     19      -3.2258      1.00000
     20      -3.0760      1.00000
     21      -3.0626      1.00000
     22      -3.0194      1.00000
     23      -2.9884      1.00000
     24      -2.9572      1.00000
     25      -2.8580      1.00000
     26      -2.8332      1.00000
     27      -2.7723      1.00000
     28      -2.5825      1.00000
     29      -2.5602      1.00000
     30      -2.4368      1.00000
     31      -2.3347      1.00000
     32      -2.3307      1.00000
     33      -2.1343      1.00000
     34      -1.9956      1.00000
     35      -1.9406      1.00000
     36      -1.7877      1.00000
     37      -1.7312      1.00000
     38      -1.7153      1.00000
     39      -1.6982      1.00000
     40      -1.6171      1.00000
     41      -1.5375      1.00000
     42      -1.5122      1.00000
     43      -1.3730      1.00000
     44      -1.3691      1.00000
     45      -1.3015      1.00000
     46      -1.2777      1.00000
     47      -1.1526      1.00000
     48      -0.9202      1.00000

 k-point   3 :       0.3333    0.3333    0.0000
  band No.  band energies     occupation 
      1      -5.5591      1.00000
      2      -4.9888      1.00000
      3      -4.4886      1.00000
      4      -4.4168      1.00000
      5      -4.2810      1.00000
      6      -4.1590      1.00000
      7      -4.1284      1.00000
      8      -4.0864      1.00000
      9      -3.9303      1.00000
     10      -3.7940      1.00000
     11      -3.7323      1.00000
     12      -3.6589      1.00000
     13      -3.6196      1.00000
     14      -3.4240      1.00000
     15      -3.3664      1.00000
     16      -3.3548      1.00000
     17      -3.3209      1.00000
     18      -3.2310      1.00000
     19      -3.0274      1.00000
     20      -2.9856      1.00000
     21      -2.9443      1.00000
     22      -2.8641      1.00000
     23      -2.7613      1.00000
     24      -2.7534      1.00000
     25      -2.7066      1.00000
     26      -2.6188      1.00000
     27      -2.5169      1.00000
     28      -2.4984      1.00000
     29      -2.4322      1.00000
     30      -2.3962      1.00000
     31      -2.3597      1.00000
     32      -2.1707      1.00000
     33      -2.0804      1.00000
     34      -2.0075      1.00000
     35      -1.8874      1.00000
     36      -1.8073      1.00000
     37      -1.7794      1.00000
     38      -1.7004      1.00000
     39      -1.6705      1.00000
     40      -1.5323      1.00000
     41      -1.5000      1.00000
     42      -1.4191      1.00000
     43      -1.3098      1.00000
     44      -1.2504      1.00000
     45      -1.1631      1.00000
     46      -1.1045      1.00000
     47      -0.8261      0.99999
     48      -0.1003      0.00001

 spin component 2

 k-point   1 :       0.0000    0.0000    0.0000
  band No.  band energies     occupation 
      1      -7.0962      1.00000
      2      -5.9364      1.00000
      3      -4.3482      1.00000
      4      -3.1599      1.00000
      5      -2.6144      1.00000
      6      -2.5528      1.00000
      7      -2.3249      1.00000
      8      -2.3243      1.00000
      9      -1.9363      1.00000
     10      -1.8185      1.00000
     11      -1.7526      1.00000
     12      -1.7526      1.00000
     13      -1.7155      1.00000
     14      -1.6633      1.00000
     15      -1.6633      1.00000
     16      -1.4797      1.00000
     17      -1.4587      1.00000
     18      -1.4587      1.00000
     19      -1.4248      1.00000
     20      -1.2792      1.00000
     21      -1.0845      1.00000
     22      -1.0845      1.00000
     23      -0.9591      1.00000
     24      -0.1922      0.00103
     25      -0.1922      0.00103
     26      -0.1041      0.00001
     27       0.2779      0.00000
     28       0.2779      0.00000
     29       0.2871      0.00000
     30       0.4931      0.00000
     31       0.5963      0.00000
     32       0.6449      0.00000
     33       0.6449      0.00000
     34       0.7133      0.00000
     35       0.7692      0.00000
     36       0.7692      0.00000
     37       0.8818      0.00000
     38       0.9202      0.00000
     39       1.1046      0.00000
     40       1.1966      0.00000
     41       1.2403      0.00000
     42       1.2908      0.00000
     43       1.3250      0.00000
     44       1.3702      0.00000
     45       1.3704      0.00000
     46       1.3738      0.00000
     47       1.5185      0.00000
     48       1.6748      0.00000

 k-point   2 :       0.3333    0.0000    0.0000
  band No.  band energies     occupation 
      1      -6.0944      1.00000
      2      -4.9881      1.00000
      3      -3.5565      1.00000
      4      -3.3073      1.00000
      5      -2.6447      1.00000
      6      -2.5485      1.00000
      7      -2.4263      1.00000
      8      -2.0563      1.00000
      9      -2.0551      1.00000
     10      -2.0328      1.00000
     11      -1.8574      1.00000
     12      -1.7839      1.00000
     13      -1.7007      1.00000
     14      -1.5338      1.00000
     15      -1.4498      1.00000
     16      -1.4326      1.00000
     17      -1.3231      1.00000
     18      -1.2782      1.00000
     19      -1.2266      1.00000
     20      -1.1203      1.00000
     21      -0.9396      1.00000
     22      -0.9247      1.00000
     23      -0.8383      1.00000
     24      -0.8333      0.99999
     25      -0.6311      1.00072
     26      -0.4608      0.47707
     27      -0.1771      0.00056
     28      -0.0859      0.00000
     29      -0.0097      0.00000
     30       0.2034      0.00000
     31       0.2469      0.00000
     32       0.4219      0.00000
     33       0.5064      0.00000
     34       0.6195      0.00000
     35       0.6426      0.00000
     36       0.6756      0.00000
     37       0.7960      0.00000
     38       0.8878      0.00000
     39       0.9775      0.00000
     40       1.0265      0.00000
     41       1.0472      0.00000
     42       1.0764      0.00000
     43       1.1485      0.00000
     44       1.2063      0.00000
     45       1.2429      0.00000
     46       1.2702      0.00000
     47       1.2819      0.00000
     48       1.3843      0.00000

 k-point   3 :       0.3333    0.3333    0.0000
  band No.  band energies     occupation 
      1      -5.1351      1.00000
      2      -4.2227      1.00000
      3      -3.2771      1.00000
      4      -2.9919      1.00000
      5      -2.9316      1.00000
      6      -2.7008      1.00000
      7      -2.5930      1.00000
      8      -2.3297      1.00000
      9      -2.2357      1.00000
     10      -2.2061      1.00000
     11      -2.0914      1.00000
     12      -1.8545      1.00000
     13      -1.6677      1.00000
     14      -1.5684      1.00000
     15      -1.4360      1.00000
     16      -1.3995      1.00000
     17      -1.2818      1.00000
     18      -1.0420      1.00000
     19      -0.8859      1.00000
     20      -0.8592      1.00000
     21      -0.8553      1.00000
     22      -0.6510      0.99581
     23      -0.5104      0.92416
     24      -0.4767      0.64396
     25      -0.4318      0.19443
     26      -0.1882      0.00088
     27       0.0030      0.00000
     28       0.0105      0.00000
     29       0.0977      0.00000
     30       0.2337      0.00000
     31       0.2728      0.00000
     32       0.3382      0.00000
     33       0.4363      0.00000
     34       0.4831      0.00000
     35       0.5385      0.00000
     36       0.6026      0.00000
     37       0.8094      0.00000
     38       0.8157      0.00000
     39       0.9000      0.00000
     40       1.0260      0.00000
     41       1.0629      0.00000
     42       1.2078      0.00000
     43       1.2097      0.00000
     44       1.2464      0.00000
     45       1.2850      0.00000
     46       1.4121      0.00000
     47       1.5281      0.00000
     48       1.7611      0.00000


--------------------------------------------------------------------------------------------------------


 soft charge-density along one line, spin component           1
         0         1         2         3         4         5         6         7         8         9
 total charge-density along one line
 
 soft charge-density along one line, spin component           2
         0         1         2         3         4         5         6         7         8         9
 total charge-density along one line
 
 pseudopotential strength for first ion, spin component:           1
 -9.954  -0.000  -0.000  -0.000  -0.000 -10.366  -0.000  -0.000
 -0.000 -10.251  -0.000   0.000   0.000  -0.000 -10.655  -0.000
 -0.000  -0.000 -10.083  -0.000  -0.011  -0.000  -0.000 -10.492
 -0.000   0.000  -0.000  -9.943  -0.000  -0.000   0.000  -0.000
 -0.000   0.000  -0.011  -0.000 -10.072  -0.000   0.000  -0.011
-10.366  -0.000  -0.000  -0.000  -0.000 -10.738  -0.000  -0.000
 -0.000 -10.655  -0.000   0.000   0.000  -0.000 -11.020  -0.000
 -0.000  -0.000 -10.492  -0.000  -0.011  -0.000  -0.000 -10.861
 -0.000   0.000  -0.000 -10.355  -0.000  -0.000   0.000  -0.000
 -0.000   0.000  -0.011  -0.000 -10.480  -0.000   0.000  -0.010
 -0.000   0.000   0.010   0.000  -0.021  -0.000   0.000   0.011
 -0.000   0.000   0.019   0.000  -0.040  -0.000   0.000   0.019
  0.000  -0.001  -0.000   0.000  -0.000   0.000  -0.002  -0.000
  0.000   0.000   0.007   0.000   0.006   0.000   0.000   0.006
  0.000   0.000  -0.000   0.011   0.000   0.000   0.000  -0.000
  0.000   0.004  -0.000   0.000  -0.000   0.000   0.004  -0.000
  0.000   0.000   0.016   0.000   0.007   0.000   0.000   0.015
  0.000   0.000  -0.000   0.018   0.000   0.000   0.000  -0.000
 pseudopotential strength for first ion, spin component:           2
 -8.166  -0.000  -0.000  -0.000  -0.000  -8.635  -0.000  -0.000
 -0.000  -7.944  -0.000   0.000   0.000  -0.000  -8.418  -0.000
 -0.000  -0.000  -8.055  -0.000  -0.094  -0.000  -0.000  -8.527
 -0.000   0.000  -0.000  -8.104  -0.000  -0.000   0.000  -0.000
 -0.000   0.000  -0.094  -0.000  -7.994  -0.000   0.000  -0.092
 -8.635  -0.000  -0.000  -0.000  -0.000  -9.063  -0.000  -0.000
 -0.000  -8.418  -0.000   0.000   0.000  -0.000  -8.851  -0.000
 -0.000  -0.000  -8.527  -0.000  -0.092  -0.000  -0.000  -8.958
 -0.000   0.000  -0.000  -8.575  -0.000  -0.000   0.000  -0.000
 -0.000   0.000  -0.092  -0.000  -8.467  -0.000   0.000  -0.090
 -0.000   0.000  -0.010   0.000   0.000  -0.000   0.000  -0.011
 -0.000   0.000  -0.020   0.000   0.001  -0.000   0.000  -0.020
  0.000  -0.021  -0.000   0.000  -0.000   0.000  -0.021  -0.000
  0.000   0.000  -0.028   0.000   0.001   0.000   0.000  -0.028
  0.000   0.000  -0.000  -0.019   0.000   0.000   0.000  -0.000
  0.000  -0.021  -0.000   0.000  -0.000   0.000  -0.021  -0.000
  0.000   0.000  -0.031   0.000  -0.000   0.000   0.000  -0.031
  0.000   0.000  -0.000  -0.022   0.000   0.000   0.000  -0.000
 total augmentation occupancy for first ion, spin component:           1
  2.269   0.000   0.000   0.000   0.000  -0.917   0.000   0.000   0.000   0.000   0.000   0.000   0.000   0.000   0.000   0.000
  0.000   2.938   0.000   0.000   0.000   0.000  -1.253   0.000   0.000   0.000   0.000   0.000  -0.056   0.000   0.000  -0.025
  0.000   0.000   2.988   0.000  -0.033   0.000   0.000  -1.355   0.000   0.132   0.181   0.029   0.000  -0.078   0.000   0.000
  0.000   0.000   0.000   2.654   0.000   0.000   0.000   0.000  -1.096   0.000   0.000   0.000   0.000   0.000  -0.069   0.000
  0.000   0.000  -0.033   0.000   2.948   0.000   0.000   0.131   0.000  -1.330  -0.311  -0.026   0.000   0.004   0.000   0.000
 -0.917   0.000   0.000   0.000   0.000   0.921   0.000   0.000   0.000   0.000   0.000   0.000   0.000   0.000   0.000   0.000
  0.000  -1.253   0.000   0.000   0.000   0.000   0.746   0.000   0.000   0.000   0.000   0.000   0.074   0.000   0.000   0.003
  0.000   0.000  -1.355   0.000   0.131   0.000   0.000   1.077   0.000  -0.174  -0.223  -0.003   0.000   0.174   0.000   0.000
  0.000   0.000   0.000  -1.096   0.000   0.000   0.000   0.000   0.997   0.000   0.000   0.000   0.000   0.000   0.193   0.000
  0.000   0.000   0.132   0.000  -1.330   0.000   0.000  -0.174   0.000   1.038   0.398  -0.009   0.000   0.039   0.000   0.000
  0.000   0.000   0.181   0.000  -0.311   0.000   0.000  -0.223   0.000   0.398   1.728  -0.110   0.000   0.157   0.000   0.000
  0.000   0.000   0.029   0.000  -0.026   0.000   0.000  -0.003   0.000  -0.009  -0.110   0.015   0.000  -0.017   0.000   0.000
  0.000  -0.056   0.000   0.000   0.000   0.000   0.074   0.000   0.000   0.000   0.000   0.000   0.111   0.000   0.000  -0.008
  0.000   0.000  -0.078   0.000   0.004   0.000   0.000   0.174   0.000   0.039   0.157  -0.017   0.000   0.099   0.000   0.000
  0.000   0.000   0.000  -0.069   0.000   0.000   0.000   0.000   0.193   0.000   0.000   0.000   0.000   0.000   0.189   0.000
  0.000  -0.025   0.000   0.000   0.000   0.000   0.003   0.000   0.000   0.000   0.000   0.000  -0.008   0.000   0.000   0.001
  0.000   0.000  -0.038   0.000   0.002   0.000   0.000   0.001   0.000  -0.004  -0.025   0.001   0.000  -0.009   0.000   0.000
  0.000   0.000   0.000  -0.022   0.000   0.000   0.000   0.000  -0.008   0.000   0.000   0.000   0.000   0.000  -0.013   0.000
 total augmentation occupancy for first ion, spin component:           2
  2.026   0.000   0.000   0.000   0.000  -0.854   0.000   0.000   0.000   0.000   0.000   0.000   0.000   0.000   0.000   0.000
  0.000   2.871   0.000   0.000   0.000   0.000  -1.205   0.000   0.000   0.000   0.000   0.000   0.008   0.000   0.000  -0.030
  0.000   0.000   2.753   0.000  -0.033   0.000   0.000  -1.226   0.000  -0.029   0.027   0.045   0.000  -0.075   0.000   0.000
  0.000   0.000   0.000   2.396   0.000   0.000   0.000   0.000  -1.084   0.000   0.000   0.000   0.000   0.000  -0.052   0.000
  0.000   0.000  -0.033   0.000   2.774   0.000   0.000  -0.026   0.000  -1.216  -0.018  -0.057   0.000  -0.014   0.000   0.000
 -0.854   0.000   0.000   0.000   0.000   0.152   0.000   0.000   0.000   0.000   0.000   0.000   0.000   0.000   0.000   0.000
  0.000  -1.205   0.000   0.000   0.000   0.000   0.428   0.000   0.000   0.000   0.000   0.000  -0.018   0.000   0.000   0.016
  0.000   0.000  -1.226   0.000  -0.026   0.000   0.000   0.384   0.000   0.041   0.016  -0.025   0.000  -0.004   0.000   0.000
  0.000   0.000   0.000  -1.084   0.000   0.000   0.000   0.000   0.301   0.000   0.000   0.000   0.000   0.000  -0.018   0.000
  0.000   0.000  -0.029   0.000  -1.216   0.000   0.000   0.041   0.000   0.365  -0.027   0.036   0.000  -0.003   0.000   0.000
  0.000   0.000   0.027   0.000  -0.018   0.000   0.000   0.016   0.000  -0.027  -0.238   0.087   0.000  -0.047   0.000   0.000
  0.000   0.000   0.045   0.000  -0.057   0.000   0.000  -0.025   0.000   0.036   0.087  -0.007   0.000   0.007   0.000   0.000
  0.000   0.008   0.000   0.000   0.000   0.000  -0.018   0.000   0.000   0.000   0.000   0.000  -0.010   0.000   0.000   0.002
  0.000   0.000  -0.075   0.000  -0.014   0.000   0.000  -0.004   0.000  -0.003  -0.047   0.007   0.000  -0.007   0.000   0.000
  0.000   0.000   0.000  -0.052   0.000   0.000   0.000   0.000  -0.018   0.000   0.000   0.000   0.000   0.000  -0.016   0.000
  0.000  -0.030   0.000   0.000   0.000   0.000   0.016   0.000   0.000   0.000   0.000   0.000   0.002   0.000   0.000  -0.000
  0.000   0.000  -0.038   0.000   0.003   0.000   0.000   0.022   0.000  -0.001   0.001  -0.002   0.000   0.003   0.000   0.000
  0.000   0.000   0.000  -0.023   0.000   0.000   0.000   0.000   0.015   0.000   0.000   0.000   0.000   0.000   0.004   0.000


------------------------ aborting loop because EDIFF is reached ----------------------------------------



 ----------------------------------------------------------------------------- 
|                                                                             |
|           W    W    AA    RRRRR   N    N  II  N    N   GGGG   !!!           |
|           W    W   A  A   R    R  NN   N  II  NN   N  G    G  !!!           |
|           W    W  A    A  R    R  N N  N  II  N N  N  G       !!!           |
|           W WW W  AAAAAA  RRRRR   N  N N  II  N  N N  G  GGG   !            |
|           WW  WW  A    A  R   R   N   NN  II  N   NN  G    G                |
|           W    W  A    A  R    R  N    N  II  N    N   GGGG   !!!           |
|                                                                             |
|      Your highest band is occupied at some k-points! Unless you are         |
|      performing a calculation for an insulator or semiconductor, without    |
|      unoccupied bands, you have included TOO FEW BANDS!! Please increase    |
|      the parameter NBANDS in file INCAR to ensure that the highest band   |
|      is unoccupied at all k-points. It is always recommended to             |
|      include a few unoccupied bands to accelerate the convergence of        |
|      molecular dynamics runs (even for insulators or semiconductors).       |
|      Because the presence of unoccupied bands improves wavefunction         |
|      prediction, and helps to suppress 'band-crossings.'                    |
|      Following all k-points will be listed (with the Fermi weights of       |
|      the highest band given in paranthesis) ... :                           |
|                                                                             |
|                          1       ( 1.04895)                                 |
|                          2       ( 1.00000)                                 |
|                                                                             |
|      The total occupancy of band no.    48 is   0.56099 electrons ...       |
|                                                                             |
 ----------------------------------------------------------------------------- 

    CHARGE:  cpu time    0.97: real time    0.97
    FORLOC:  cpu time    0.02: real time    0.02
    FORNL :  cpu time    2.68: real time    2.68
    STRESS:  cpu time    2.30: real time    2.30
    FORCOR:  cpu time    0.36: real time    0.36
    FORHAR:  cpu time    0.04: real time    0.04
    MIXING:  cpu time    0.09: real time    0.09

  FORCE on cell =-STRESS in cart. coord.  units (eV):
  Direction    XX          YY          ZZ          XY          YZ          ZX
  --------------------------------------------------------------------------------------
  Alpha Z   184.94038   184.94038   184.94038
  Ewald   13373.37435 13373.37435-16298.98138    -0.00000    -0.00000     0.00000
  Hartree 14881.17704 14881.17704-13943.94176    -0.00000    -0.00000     0.00000
  E(xc)    -353.39903  -353.39903  -353.45476     0.00000     0.00000    -0.00000
  Local  -28841.90126-28841.90126 29661.67323    -0.00000     0.00000    -0.00000
  n-local  -242.16391  -246.22466  -243.00552     3.80267     0.01088     0.01052
  augment   349.41630   349.41630   347.03198     0.00000     0.00000    -0.00000
  Kinetic   642.71765   634.71236   639.91744     3.27680    -0.01974    -0.01933
  Fock        0.00000     0.00000     0.00000     0.00000     0.00000     0.00000
  -------------------------------------------------------------------------------------
  Total     -11.87150   -11.87150    -5.82039     0.00000     0.00000     0.00000
  in kB     -62.83450   -62.83450   -30.80668     0.00000     0.00000     0.00000
  external pressure =      -52.16 kB  Pullay stress =        0.00 kB


 VOLUME and BASIS-vectors are now :
 -----------------------------------------------------------------------------
  energy-cutoff  :      350.00
  volume of cell :      302.70
      direct lattice vectors                 reciprocal lattice vectors
     3.986512170  0.000000000  0.000000000     0.250845842  0.000000000  0.000000000
     0.000000000  3.986512170  0.000000000     0.000000000  0.250845842  0.000000000
     0.000000000  0.000000000 19.047224470     0.000000000  0.000000000  0.052501088

  length of vectors
     3.986512170  3.986512170 19.047224470     0.250845842  0.250845842  0.052501088


 FORCES acting on ions
    electron-ion (+dipol)            ewald-force                    non-local-force                 convergence-correction
 -----------------------------------------------------------------------------------------------
   0.739E-06 0.343E-06 0.139E+04   -.141E-05 -.653E-06 -.138E+04   0.000E+00 0.000E+00 -.506E+01   0.178E-10 0.217E-10 -.835E-02
   0.241E-06 -.711E-06 0.139E+04   0.653E-06 0.141E-05 -.138E+04   0.000E+00 0.000E+00 -.506E+01   -.578E-11 0.173E-10 -.835E-02
   -.411E-06 0.791E-06 0.832E+03   0.151E-05 -.151E-05 -.832E+03   0.000E+00 0.000E+00 -.470E-01   -.542E-10 0.219E-10 -.155E-01
   0.114E-05 0.368E-06 0.207E+03   -.219E-05 -.704E-06 -.207E+03   0.000E+00 0.000E+00 0.889E-01   0.102E-11 0.104E-10 -.549E-02
   0.417E-06 -.142E-05 0.207E+03   0.704E-06 0.219E-05 -.207E+03   0.000E+00 0.000E+00 0.889E-01   -.234E-10 0.615E-11 -.549E-02
   -.350E-06 0.787E-06 -.394E+03   0.150E-05 -.150E-05 0.393E+03   0.000E+00 0.000E+00 0.779E+00   -.387E-10 0.691E-11 0.121E-01
   0.122E-05 0.342E-06 -.102E+04   -.233E-05 -.653E-06 0.102E+04   0.000E+00 0.000E+00 0.381E-01   0.239E-10 0.109E-10 0.176E-01
   0.439E-06 -.158E-05 -.102E+04   0.653E-06 0.233E-05 0.102E+04   0.000E+00 0.000E+00 0.381E-01   -.686E-11 -.308E-10 0.176E-01
   0.393E-07 0.475E-06 -.158E+04   0.908E-06 -.908E-06 0.157E+04   0.000E+00 0.000E+00 0.848E+01   0.110E-10 0.524E-11 0.560E-02
 -----------------------------------------------------------------------------------------------
   0.347E-05 -.603E-06 0.640E+00   -.325E-13 -.187E-13 0.227E-12   0.000E+00 0.000E+00 -.650E+00   -.751E-10 0.697E-10 0.968E-02
 
 
 POSITION                                       TOTAL-FORCE (eV/Angst)
 -----------------------------------------------------------------------------------
      0.00000      0.00000      0.00000         0.000000      0.000000      0.566199
      1.99326      1.99326      0.00000         0.000000      0.000000      0.566199
      1.99326      0.00000      1.40944         0.000000      0.000000     -0.221413
      0.00000      0.00000      2.82171         0.000000      0.000000      0.061390
      1.99326      1.99326      2.82171         0.000000      0.000000      0.061390
      1.99326      0.00000      4.26126         0.000000      0.000000     -0.073088
      0.00000      0.00000      5.65101         0.000000      0.000000     -0.545738
      1.99326      1.99326      5.65101         0.000000      0.000000     -0.545738
      1.99326      0.00000      6.93432         0.000000      0.000000      0.130798
 -----------------------------------------------------------------------------------
    total drift:                                0.000003     -0.000001     -0.000406


--------------------------------------------------------------------------------------------------------



  FREE ENERGIE OF THE ION-ELECTRON SYSTEM (eV)
  ---------------------------------------------------
  free  energy   TOTEN  =       -64.94759326 eV

  energy  without entropy=      -64.93515777  energy(sigma->0) =      -64.94448439
 


--------------------------------------------------------------------------------------------------------


    POTLOK:  cpu time    0.41: real time    0.41


--------------------------------------------------------------------------------------------------------




--------------------------------------------------------------------------------------------------------


    WAVPRE:  cpu time    0.04: real time    0.04
 FEWALD executed in parallel
    FEWALD:  cpu time    0.00: real time    0.00
    ORTHCH:  cpu time    0.28: real time    0.29
     LOOP+:  cpu time  602.65: real time 9429.05


----------------------------------------- Iteration    2(   1)  ---------------------------------------


    POTLOK:  cpu time    0.34: real time    0.34
    SETDIJ:  cpu time    0.07: real time    0.07
     EDDAV:  cpu time    7.84: real time    7.84
       DOS:  cpu time    0.00: real time    0.00
    CHARGE:  cpu time    0.97: real time    0.97
    MIXING:  cpu time    0.01: real time    0.01
    --------------------------------------------
      LOOP:  cpu time    9.23: real time    9.24

 eigenvalue-minimisa    EDDIAG:  cpu time    2.60: real time    2.60
  RMM-DIIS:  cpu time    8.63: real time    8.64
    ORTHCH:  cpu time    0.13: real time    0.13
       DOS:  cpu time    0.00: real time    0.00
    CHARGE:  cpu time    1.28: real time    1.28
    MIXING:  cpu time    0.02: real time    0.02
    --------------------------------------------
      LOOP:  cpu time   13.10: real time   13.11

 eigenvalue-minimisations  :   788
 total energy-change (2. order) :-0.2242245E+00  (-0.8870808E-02)
 number of electron      96.0000803 magnetization      12.3286134
 augmentation part       49.4205183 magnetization       8.1355297

 Broyden mixing:
  rms(total) = 0.16787E+01    rms(broyden)= 0.16787E+01
  rms(prec ) = 0.17944E+01
  weight for this iteration     100.00

 eigenvalues of (default mixing * dielectric matrix)
  average eigenvalue GAMMA=   0.4152
  1.1565  0.9167  0.9167  0.4259  0.4259  0.3537  0.2060  0.2060  0.1222  0.1164
  0.0876  0.0484

 Free energy of the ion-electron system (eV)
  ---------------------------------------------------
  alpha Z        PSCENC =       328.78290224
  Ewald energy   TEWEN  =     19259.87496258
  -1/2 Hartree   DENC   =    -26555.06565314
  -exchange  EXHF       =         0.00000000
  -V(xc)+E(xc)   XCENC  =        38.17415148
  PAW double counting   =      7977.40799193    -8077.68752754
  entropy T*S    EENTRO =        -0.00648760
  eigenvalues    EBANDS =      -192.85204532
  atomic energy  EATOM  =      7131.53793727
  ---------------------------------------------------
  free energy    TOTEN  =       -89.83376811 eV

  energy with     EDDAV:  cpu time   18.00: real time   18.02
       DOS:  cpu time    0.00: real time    0.00
    --------------------------------------------
      LOOP:  cpu time   18.00: real time   18.02

 eigenvalue-minimisations  :  1409
 total energy-change (2. order) :-0.8724122E-03  (-0.8547684E-03)
 number of electron      96.0000000 magnetization      12.0000000
 augmentation part       96.0000000 magnetization      12.0000000

 Free energy of the ion-electron system (eV)
[...]
  entropy T*S    EENTRO =        -0.00160551
  eigenvalues    EBANDS =      -166.73305621
  atomic energy  EATOM  =      7131.53793727
  ---------------------------------------------------
  free energy    TOTEN  =       -90.53924845 eV

  energy without entropy =      -90.53764294  energy(sigma->0) =      -90.53884707


--------------------------------------------------------------------------------------------------------




----------------------------------------- Iteration    9(  29)  ---------------------------------------


    POTLOK:  cpu time    0.31: real time    0.31
    SETDIJ:  cpu time    0.09: real time    0.09
    EDDIAG:  cpu time    2.46: real time    2.46
  RMM-DIIS:  cpu time    7.91: real time    7.92
    ORTHCH:  cpu time    0.12: real time    0.12
       DOS:  cpu time    0.00: real time    0.00
    CHARGE:  cpu time    1.21: real time    1.21
    MIXING:  cpu time    0.04: real time    0.04
    --------------------------------------------
      LOOP:  cpu time   12.15: real time   12.16

 eigenvalue-minimisations  :   777
 total energy-change (2. order) : 0.2973590E-01  (-0.4129623E-02)
 number of electron      96.0000758 magnetization      12.8840970
 augmentation part       49.9482406 magnetization       8.9455168

 Broyden mixing:
  rms(total) = 0.44948E+00    rms(broyden)= 0.44943E+00
  rms(prec ) = 0.47718E+00
  weight for this iteration     100.00

 eigenvalues of (default mixing * dielectric matrix)
  average eigenvalue GAMMA=   1.3330
 10.0521  4.6483  4.6483  1.9020  1.9020  1.3675  1.3675  1.3030  0.8583  0.8583
  0.8113  0.8113  0.7402  0.7402  0.0453  0.5380  0.5380  0.1047  0.1215  0.1491
  0.1491  0.6846  0.4796  0.4796  0.5421  0.5421  0.5417  0.3973

 Free energy of the ion-electron system (eV)
  ---------------------------------------------------
  alpha Z        PSCENC =       328.78290224
  Ewald energy   TEWEN  =     19391.63117121
  -1/2 Hartree   DENC   =    -26713.81620763
  -exchange  EXHF       =         0.00000000
  -V(xc)+E(xc)   XCENC  =        46.35429881
  PAW double counting   =      8302.08623340    -8409.92702369
  entropy T*S    EENTRO =        -0.00133075
  eigenvalues    EBANDS =      -167.15749341
  atomic energy  EATOM  =      7131.53793727
  ---------------------------------------------------
  free energy    TOTEN  =       -90.50951255 eV

  energy without entropy =      -90.50818180  energy(sigma->0) =      -90.50917986


--------------------------------------------------------------------------------------------------------




----------------------------------------- Iteration    9(  30)  ---------------------------------------


    POTLOK:  cpu time    0.31: real time    0.31
    SETDIJ:  cpu time    0.10: real time    0.09
    EDDIAG:  cpu time    2.46: real time    2.46
  RMM-DIIS:  cpu time    8.06: real time    8.06
    ORTHCH:  cpu time    0.12: real time    0.12
       DOS:  cpu time    0.00: real time    0.00
    CHARGE:  cpu time    1.21: real time    1.21
    MIXING:  cpu time    0.05: real time    0.05
    --------------------------------------------
      LOOP:  cpu time   12.31: real time   12.31

 eigenvalue-minimisations  :   796
 total energy-change (2. order) : 0.1115532E+00  (-0.3047369E-01)
 number of electron      96.0000778 magnetization      12.6791309
 augmentation part       49.9481909 magnetization       9.0644682

 Broyden mixing:
  rms(total) = 0.41853E+00    rms(broyden)= 0.41792E+00
  rms(prec ) = 0.51340E+00
  weight for this iteration     100.00

 eigenvalues of (default mixing * dielectric matrix)
  average eigenvalue GAMMA=   1.3319
 11.4249  4.5397  4.5397  1.8929  1.8929  1.3592  1.3592  1.4087  0.8592  0.8592
  0.8311  0.8311  0.7261  0.7261  0.5432  0.5432  0.4813  0.4813  0.5548  0.5548
  0.5174  0.5174  0.0453  0.1047  0.1215  0.1491  0.1491  0.3954  0.2166

 Free energy of the ion-electron system (eV)
  ---------------------------------------------------
  alpha Z        PSCENC =       328.78290224
  Ewald energy   TEWEN  =     19391.63117121
  -1/2 Hartree   DENC   =    -26712.41509302
  -exchange  EXHF       =         0.00000000
  -V(xc)+E(xc)   XCENC  =        46.42984967
  PAW double counting   =      8297.20118364    -8404.82629297
  entropy T*S    EENTRO =         0.01920289
  eigenvalues    EBANDS =      -168.75882027
  atomic energy  EATOM  =      7131.53793727
  ---------------------------------------------------
  free energy    TOTEN  =       -90.39795932 eV

  energy without entropy =      -90.41716221  energy(sigma->0) =      -90.40276005


--------------------------------------------------------------------------------------------------------




----------------------------------------- Iteration    9(  31)  ---------------------------------------


    POTLOK:  cpu time    0.31: real time    0.31
    SETDIJ:  cpu time    0.09: real time    0.09
    EDDIAG:  cpu time    2.46: real time    2.46
  RMM-DIIS:  cpu time    9.12: real time    9.12
    ORTHCH:  cpu time    0.12: real time    0.12
       DOS:  cpu time    0.00: real time    0.00
    CHARGE:  cpu time    1.22: real time    1.23
    MIXING:  cpu time    0.05: real time    0.05
    --------------------------------------------
      LOOP:  cpu time   13.37: real time   13.38

 eigenvalue-minimisations  :   917
 total energy-change (2. order) :-0.1518737E-01  (-0.8519842E-02)
 number of electron      96.0000776 magnetization      12.6768829
 augmentation part       49.9350569 magnetization       9.0258285

 Broyden mixing:
  rms(total) = 0.43611E+00    rms(broyden)= 0.43607E+00
  rms(prec ) = 0.54333E+00
  weight for this iteration     100.00

 eigenvalues of (default mixing * dielectric matrix)
  average eigenvalue GAMMA=   1.3075
 11.6012  4.5520  4.5520  1.9108  1.9108  1.3572  1.3572  1.3851  0.8605  0.8605
  0.8472  0.8472  0.7261  0.7261  0.5410  0.5410  0.5590  0.5590  0.5458  0.5458
  0.4805  0.4805  0.0453  0.1047  0.1215  0.1491  0.1491  0.3974  0.2561  0.2561

 Free energy of the ion-electron system (eV)
  ---------------------------------------------------
  alpha Z        PSCENC =       328.78290224
  Ewald energy   TEWEN  =     19391.63117121
  -1/2 Hartree   DENC   =    -26712.34269140
  -exchange  EXHF       =         0.00000000
  -V(xc)+E(xc)   XCENC  =        46.43712102
  PAW double counting   =      8296.72699960    -8404.29910617
  entropy T*S    EENTRO =         0.01918217
  eigenvalues    EBANDS =      -168.90666263
  atomic energy  EATOM  =      7131.53793727
  ---------------------------------------------------
  free energy    TOTEN  =       -90.41314669 eV

  energy without entropy =      -90.43232886  energy(sigma->0) =      -90.41794223


--------------------------------------------------------------------------------------------------------




----------------------------------------- Iteration    9(  32)  ---------------------------------------


    POTLOK:  cpu time    0.32: real time    0.32
    SETDIJ:  cpu time    0.10: real time    0.09
    EDDIAG:  cpu time    2.46: real time    2.46
  RMM-DIIS:  cpu time    8.96: real time    8.96
    ORTHCH:  cpu time    0.12: real time    0.12
       DOS:  cpu time    0.00: real time    0.00
    CHARGE:  cpu time    1.22: real time    1.22
    MIXING:  cpu time    0.05: real time    0.05
    --------------------------------------------
      LOOP:  cpu time   13.22: real time   13.23

 eigenvalue-minimisations  :   898
 total energy-change (2. order) :-0.4096667E-02  (-0.5332816E-03)
 number of electron      96.0000776 magnetization      12.6825239
 augmentation part       49.9337410 magnetization       9.0266576

 Broyden mixing:
  rms(total) = 0.43358E+00    rms(broyden)= 0.43358E+00
  rms(prec ) = 0.54185E+00
  weight for this iteration     100.00

 eigenvalues of (default mixing * dielectric matrix)
  average eigenvalue GAMMA=   1.2653
 11.3467  4.5493  4.5493  1.9107  1.9107  1.3578  1.3578  1.3524  0.8602  0.8602
  0.8435  0.8435  0.7440  0.7440  0.5399  0.5399  0.5784  0.5784  0.5349  0.5349
  0.4822  0.4822  0.0453  0.1047  0.1215  0.1491  0.1491  0.3971  0.2539  0.2539
  0.2500

 Free energy of the ion-electron system (eV)
  ---------------------------------------------------
  alpha Z        PSCENC =       328.78290224
  Ewald energy   TEWEN  =     19391.63117121
  -1/2 Hartree   DENC   =    -26712.33290431
  -exchange  EXHF       =         0.00000000
  -V(xc)+E(xc)   XCENC  =        46.43770687
  PAW double counting   =      8296.77009223    -8404.34511743
  entropy T*S    EENTRO =         0.01950827
  eigenvalues    EBANDS =      -168.91853972
  atomic energy  EATOM  =      7131.53793727
  ---------------------------------------------------
  free energy    TOTEN  =       -90.41724336 eV

  energy without entropy =      -90.43675163  energy(sigma->0) =      -90.42212043


--------------------------------------------------------------------------------------------------------




----------------------------------------- Iteration    9(  33)  ---------------------------------------


    POTLOK:  cpu time    0.31: real time    0.31
    SETDIJ:  cpu time    0.09: real time    0.09
    EDDIAG:  cpu time    2.46: real time    2.46
  RMM-DIIS:  cpu time    7.62: real time    7.63
    ORTHCH:  cpu time    0.12: real time    0.12
       DOS:  cpu time    0.00: real time    0.00
    CHARGE:  cpu time    1.23: real time    1.23
    MIXING:  cpu time    0.05: real time    0.05
    --------------------------------------------
      LOOP:  cpu time   11.89: real time   11.90

 eigenvalue-minimisations  :   746
 total energy-change (2. order) :-0.1686553E-02  (-0.5799702E-04)
 number of electron      96.0000776 magnetization      12.4233597
 augmentation part       49.9327530 magnetization       8.7660293

 Broyden mixing:
  rms(total) = 0.43337E+00    rms(broyden)= 0.43337E+00
  rms(prec ) = 0.54235E+00
  weight for this iteration     100.00

 eigenvalues of (default mixing * dielectric matrix)
  average eigenvalue GAMMA=   1.2935
 12.6686  4.5064  4.5064  1.9191  1.9191  1.4855  1.3638  1.3638  0.8600  0.8600
  0.8487  0.8487  0.7137  0.7137  0.4790  0.4790  0.5371  0.5371  0.5719  0.5719
  0.5381  0.5381  0.4806  0.4806  0.0453  0.1047  0.1215  0.1491  0.1491  0.2482
  0.3917  0.3917

 Free energy of the ion-electron system (eV)
  ---------------------------------------------------
  alpha Z        PSCENC =       328.78290224
  Ewald energy   TEWEN  =     19391.63117121
  -1/2 Hartree   DENC   =    -26712.36810336
  -exchange  EXHF       =         0.00000000
  -V(xc)+E(xc)   XCENC  =        46.43803593
  PAW double counting   =      8296.75096013    -8404.32626604
  entropy T*S    EENTRO =         0.01972796
  eigenvalues    EBANDS =      -168.88529526
  atomic energy  EATOM  =      7131.53793727
  ---------------------------------------------------
  free energy    TOTEN  =       -90.41892991 eV

  energy without entropy =      -90.43865787  energy(sigma->0) =      -90.42386190


--------------------------------------------------------------------------------------------------------




----------------------------------------- Iteration    9(  34)  ---------------------------------------


    POTLOK:  cpu time    0.31: real time    0.31
    SETDIJ:  cpu time    0.09: real time    0.09
    EDDIAG:  cpu time    2.47: real time    2.47
  RMM-DIIS:  cpu time    7.88: real time    7.89
    ORTHCH:  cpu time    0.12: real time    0.12
       DOS:  cpu time    0.00: real time    0.00
    CHARGE:  cpu time    1.22: real time    1.22
    MIXING:  cpu time    0.06: real time    0.06
    --------------------------------------------
      LOOP:  cpu time   12.15: real time   12.16

 eigenvalue-minimisations  :   776
 total energy-change (2. order) : 0.2625453E-01  (-0.6040612E-03)
 number of electron      96.0000779 magnetization      12.3833278
 augmentation part       49.9348752 magnetization       8.7388983

 Broyden mixing:
  rms(total) = 0.45848E+00    rms(broyden)= 0.45847E+00
  rms(prec ) = 0.57301E+00
  weight for this iteration     100.00

 eigenvalues of (default mixing * dielectric matrix)
  average eigenvalue GAMMA=   1.2691
 12.8881  4.5044  4.5044  1.9244  1.9244  1.3644  1.3644  1.4852  0.8604  0.8604
  0.8491  0.8491  0.5171  0.5171  0.7134  0.7134  0.5372  0.5372  0.5696  0.5696
  0.5382  0.5382  0.4815  0.4815  0.0453  0.1047  0.1215  0.1491  0.1491  0.2831
  0.3960  0.3700  0.1692

 Free energy of the ion-electron system (eV)
  ---------------------------------------------------
  alpha Z        PSCENC =       328.78290224
  Ewald energy   TEWEN  =     19391.63117121
  -1/2 Hartree   DENC   =    -26711.77527203
  -exchange  EXHF       =         0.00000000
  -V(xc)+E(xc)   XCENC  =        46.47826453
  PAW double counting   =      8296.09165713    -8403.64895623
  entropy T*S    EENTRO =         0.01729577
  eigenvalues    EBANDS =      -169.50767526
  atomic energy  EATOM  =      7131.53793727
  ---------------------------------------------------
  free energy    TOTEN  =       -90.39267538 eV

  energy without entropy =      -90.40997115  energy(sigma->0) =      -90.39699932


--------------------------------------------------------------------------------------------------------




----------------------------------------- Iteration    9(  35)  ---------------------------------------


    POTLOK:  cpu time    0.31: real time    0.31
    SETDIJ:  cpu time    0.09: real time    0.09
    EDDIAG:  cpu time    2.46: real time    2.46
  RMM-DIIS:  cpu time    8.96: real time    8.97
    ORTHCH:  cpu time    0.12: real time    0.12
       DOS:  cpu time    0.00: real time    0.00
    CHARGE:  cpu time    1.21: real time    1.21
    MIXING:  cpu time    0.06: real time    0.06
    --------------------------------------------
      LOOP:  cpu time   13.23: real time   13.23

 eigenvalue-minimisations  :   901
 total energy-change (2. order) : 0.2479700E-02  (-0.2262124E-03)
 number of electron      96.0000779 magnetization      12.4756235
 augmentation part       49.9350869 magnetization       8.8254089

 Broyden mixing:
  rms(total) = 0.46657E+00    rms(broyden)= 0.46657E+00
  rms(prec ) = 0.58486E+00
  weight for this iteration     100.00

 eigenvalues of (default mixing * dielectric matrix)
  average eigenvalue GAMMA=   1.2363
 11.1341  4.4516  4.4516  1.8329  1.8329  1.2179  1.5650  1.3609  1.3609  0.8561
  0.8561  0.7320  0.7320  0.8513  0.8513  0.3685  0.7163  0.7163  0.0453  0.5337
  0.5337  0.1047  0.1215  0.1491  0.1491  0.4801  0.4801  0.5684  0.5684  0.5241
  0.5241  0.4840  0.4840  0.3979

 Free energy of the ion-electron system (eV)
  ---------------------------------------------------
  alpha Z        PSCENC =       328.78290224
  Ewald energy   TEWEN  =     19391.63117121
  -1/2 Hartree   DENC   =    -26711.59412354
  -exchange  EXHF       =         0.00000000
  -V(xc)+E(xc)   XCENC  =        46.48950477
  PAW double counting   =      8296.04789253    -8403.60842420
  entropy T*S    EENTRO =         0.01667913
  eigenvalues    EBANDS =      -169.69373509
  atomic energy  EATOM  =      7131.53793727
  ---------------------------------------------------
  free energy    TOTEN  =       -90.39019568 eV

  energy without entropy =      -90.40687481  energy(sigma->0) =      -90.39436546


--------------------------------------------------------------------------------------------------------




----------------------------------------- Iteration    9(  36)  ---------------------------------------


    POTLOK:  cpu time    0.31: real time    0.31
    SETDIJ:  cpu time    0.09: real time    0.09
    EDDIAG:  cpu time    2.46: real time    2.47
  RMM-DIIS:  cpu time    7.77: real time    7.77
    ORTHCH:  cpu time    0.12: real time    0.12
       DOS:  cpu time    0.00: real time    0.00
    CHARGE:  cpu time    1.22: real time    1.21
    MIXING:  cpu time    0.06: real time    0.06
    --------------------------------------------
      LOOP:  cpu time   12.04: real time   12.04

 eigenvalue-minimisations  :   761
 total energy-change (2. order) :-0.8933818E-02  (-0.1093683E-03)
 number of electron      96.0000778 magnetization      12.6655853
 augmentation part       49.9331759 magnetization       9.0099379

 Broyden mixing:
  rms(total) = 0.44822E+00    rms(broyden)= 0.44822E+00
  rms(prec ) = 0.56117E+00
  weight for this iteration     100.00

 eigenvalues of (default mixing * dielectric matrix)
  average eigenvalue GAMMA=   1.1917
  8.1084  4.3156  4.3156  3.5053  1.7539  1.7539  1.4770  1.4770  0.8832  0.8832
  0.8578  0.8578  0.9632  0.9632  0.3604  0.7925  0.7925  0.0453  0.7018  0.7018
  0.1047  0.1215  0.1491  0.1491  0.5303  0.5303  0.6023  0.5590  0.5590  0.5523
  0.5523  0.4748  0.4748  0.3980  0.4433

 Free energy of the ion-electron system (eV)
  ---------------------------------------------------
  alpha Z        PSCENC =       328.78290224
  Ewald energy   TEWEN  =     19391.63117121
  -1/2 Hartree   DENC   =    -26711.92749963
  -exchange  EXHF       =         0.00000000
  -V(xc)+E(xc)   XCENC  =        46.45793225
  PAW double counting   =      8295.91449750    -8403.44727279
  entropy T*S    EENTRO =         0.01851061
  eigenvalues    EBANDS =      -169.36730816
  atomic energy  EATOM  =      7131.53793727
  ---------------------------------------------------
  free energy    TOTEN  =       -90.39912950 eV

  energy without entropy =      -90.41764011  energy(sigma->0) =      -90.40375715


--------------------------------------------------------------------------------------------------------




----------------------------------------- Iteration    9(  37)  ---------------------------------------


    POTLOK:  cpu time    0.31: real time    0.31
    SETDIJ:  cpu time    0.09: real time    0.09
    EDDIAG:  cpu time    2.45: real time    2.45
  RMM-DIIS:  cpu time    8.08: real time    8.09
    ORTHCH:  cpu time    0.12: real time    0.12
       DOS:  cpu time    0.00: real time    0.00
    CHARGE:  cpu time    1.21: real time    1.21
    MIXING:  cpu time    0.06: real time    0.06
    --------------------------------------------
      LOOP:  cpu time   12.34: real time   12.34

 eigenvalue-minimisations  :   798
 total energy-change (2. order) :-0.2402771E-01  (-0.1286831E-02)
 number of electron      96.0000776 magnetization      13.2584100
 augmentation part       49.9220197 magnetization       9.6082363

 Broyden mixing:
  rms(total) = 0.38345E+00    rms(broyden)= 0.38343E+00
  rms(prec ) = 0.47921E+00
  weight for this iteration     100.00

 eigenvalues of (default mixing * dielectric matrix)
  average eigenvalue GAMMA=   1.2416
  6.9687  6.9687  4.0444  4.0444  1.7914  1.7914  1.4864  1.4864  0.9917  0.9917
  1.0453  1.0453  1.0453  0.8607  0.8607  0.3597  0.7250  0.7250  0.6590  0.6590
  0.5292  0.5292  0.0453  0.1047  0.1215  0.1491  0.1491  0.4762  0.4762  0.5724
  0.5724  0.5402  0.5402  0.4727  0.4727  0.3981

 Free energy of the ion-electron system (eV)
  ---------------------------------------------------
  alpha Z        PSCENC =       328.78290224
  Ewald energy   TEWEN  =     19391.63117121
  -1/2 Hartree   DENC   =    -26713.23684254
  -exchange  EXHF       =         0.00000000
  -V(xc)+E(xc)   XCENC  =        46.40096590
  PAW double counting   =      8296.41177676    -8403.89791455
  entropy T*S    EENTRO =         0.02173508
  eigenvalues    EBANDS =      -168.07488858
  atomic energy  EATOM  =      7131.53793727
  ---------------------------------------------------
  free energy    TOTEN  =       -90.42315720 eV

  energy without entropy =      -90.44489228  energy(sigma->0) =      -90.42859097


--------------------------------------------------------------------------------------------------------




----------------------------------------- Iteration    9(  38)  ---------------------------------------


    POTLOK:  cpu time    0.31: real time    0.31
    SETDIJ:  cpu time    0.09: real time    0.09
    EDDIAG:  cpu time    2.45: real time    2.45
