<?xml version="1.0" encoding="ISO-8859-1"?>
<modeling>
 <generator>
  <i name="program" type="string">vasp </i>
  <i name="version" type="string">5.3.3  </i>
  <i name="subversion" type="string">18Dez12 (build Sep  7 2015 22:32:56) complex                          parallel </i>
  <i name="platform" type="string">LinuxIFC </i>
  <i name="date" type="string">2002 01 11 </i>
  <i name="time" type="string">02:49:24 </i>
 </generator>
 <incar>
  <i type="string" name="SYSTEM"> Crystal</i>
  <i type="int" name="ISTART">     0</i>
  <i type="string" name="PREC">normal</i>
  <i type="string" name="ALGO"> fast</i>
  <i type="int" name="NSIM">     4</i>
  <i type="int" name="ISPIN">     2</i>
  <i type="int" name="ICHARG">     2</i>
  <i type="int" name="NELMDL">   -10</i>
  <i type="int" name="NELMIN">     4</i>
  <i type="int" name="IBRION">     2</i>
  <i name="EDIFF">      0.00001000</i>
  <i name="EDIFFG">     -0.01000000</i>
  <i type="int" name="NSW">   300</i>
  <i name="ENCUT">    350.00000000</i>
  <i type="logical" name="LREAL"> F  </i>
  <i type="int" name="ISMEAR">     2</i>
  <i name="SIGMA">      0.10000000</i>
  <i type="logical" name="LWAVE"> F  </i>
  <i type="logical" name="LCHARG"> F  </i>
 </incar>
 <kpoints>
  <generation param="Gamma">
   <v type="int" name="divisions">       3        3        1 </v>
   <v name="usershift">      0.00000000       0.00000000       0.00000000 </v>
   <v name="genvec1">      0.33333333       0.00000000       0.00000000 </v>
   <v name="genvec2">      0.00000000       0.33333333       0.00000000 </v>
   <v name="genvec3">      0.00000000       0.00000000       1.00000000 </v>
   <v name="shift">      0.00000000       0.00000000       0.00000000 </v>
  </generation>
  <varray name="kpointlist" >
   <v>       0.00000000       0.00000000       0.00000000 </v>
   <v>       0.33333333       0.00000000       0.00000000 </v>
   <v>       0.00000000       0.33333333       0.00000000 </v>
   <v>       0.33333333       0.33333333       0.00000000 </v>
  </varray>
  <varray name="weights" >
   <v>       0.11111111 </v>
   <v>       0.22222222 </v>
   <v>       0.22222222 </v>
   <v>       0.44444444 </v>
  </varray>
 </kpoints>
 <parameters>
  <separator name="general" >
   <i type="string" name="SYSTEM">Crystal</i>
   <i type="logical" name="LCOMPAT"> F  </i>
  </separator>
  <separator name="electronic" >
   <i type="string" name="PREC">normal</i>
   <i name="ENMAX">    350.00000000</i>
   <i name="ENAUG">    511.36800000</i>
   <i name="EDIFF">      0.00001000</i>
   <i type="int" name="IALGO">    68</i>
   <i type="int" name="IWAVPR">    11</i>
   <i type="int" name="NBANDS">    63</i>
   <i name="NELECT">     96.00000000</i>
   <i type="int" name="TURBO">     0</i>
   <i type="int" name="IRESTART">     0</i>
   <i type="int" name="NREBOOT">     0</i>
   <i type="int" name="NMIN">     0</i>
   <i name="EREF">      0.00000000</i>
   <separator name="electronic smearing" >
    <i type="int" name="ISMEAR">     2</i>
    <i name="SIGMA">      0.10000000</i>
    <i name="KSPACING">      0.50000000</i>
    <i type="logical" name="KGAMMA"> T  </i>
   </separator>
   <separator name="electronic projectors" >
    <i type="logical" name="LREAL"> F  </i>
    <v name="ROPT">      0.00000000</v>
    <i type="int" name="LMAXPAW">  -100</i>
    <i type="int" name="LMAXMIX">     2</i>
    <i type="logical" name="NLSPLINE"> F  </i>
   </separator>
   <separator name="electronic startup" >
    <i type="int" name="ISTART">     0</i>
    <i type="int" name="ICHARG">     2</i>
    <i type="int" name="INIWAV">     1</i>
   </separator>
   <separator name="electronic spin" >
    <i type="int" name="ISPIN">     2</i>
    <i type="logical" name="LNONCOLLINEAR"> F  </i>
    <v name="MAGMOM">      1.00000000      1.00000000      1.00000000      1.00000000      1.00000000      1.00000000      1.00000000      1.00000000      1.00000000      1.00000000      1.00000000      1.00000000</v>
    <i name="NUPDOWN">     -1.00000000</i>
    <i type="logical" name="LSORBIT"> F  </i>
    <v name="SAXIS">      0.00000000      0.00000000      1.00000000</v>
    <i type="logical" name="LSPIRAL"> F  </i>
    <v name="QSPIRAL">      0.00000000      0.00000000      0.00000000</v>
    <i type="logical" name="LZEROZ"> F  </i>
   </separator>
   <separator name="electronic exchange-correlation" >
    <i type="logical" name="LASPH"> F  </i>
    <i type="logical" name="LMETAGGA"> F  </i>
   </separator>
   <separator name="electronic convergence" >
    <i type="int" name="NELM">    60</i>
    <i type="int" name="NELMDL">   -10</i>
    <i type="int" name="NELMIN">     4</i>
    <i name="ENINI">    350.00000000</i>
    <separator name="electronic convergence detail" >
     <i type="logical" name="LDIAG"> T  </i>
     <i type="logical" name="LSUBROT"> T  </i>
     <i name="WEIMIN">      0.00100000</i>
     <i name="EBREAK">      0.00000004</i>
     <i name="DEPER">      0.30000000</i>
     <i type="int" name="NRMM">     4</i>
     <i name="TIME">      0.40000000</i>
    </separator>
   </separator>
   <separator name="electronic mixer" >
    <i name="AMIX">      0.40000000</i>
    <i name="BMIX">      1.00000000</i>
    <i name="AMIN">      0.10000000</i>
    <i name="AMIX_MAG">      1.60000000</i>
    <i name="BMIX_MAG">      1.00000000</i>
    <separator name="electronic mixer details" >
     <i type="int" name="IMIX">     4</i>
     <i type="int" name="MAXMIX">   -45</i>
     <i name="WC">    100.00000000</i>
     <i type="int" name="INIMIX">     1</i>
     <i type="int" name="MIXPRE">     1</i>
     <i type="int" name="MREMOVE">     5</i>
    </separator>
   </separator>
   <separator name="electronic dipolcorrection" >
    <i type="logical" name="LDIPOL"> F  </i>
    <i type="logical" name="LMONO"> F  </i>
    <i type="int" name="IDIPOL">     0</i>
    <i name="EPSILON">      1.00000000</i>
    <v name="DIPOL">   -100.00000000   -100.00000000   -100.00000000</v>
    <i name="EFIELD">      0.00000000</i>
   </separator>
  </separator>
  <separator name="grids" >
   <i type="int" name="NGX">    18</i>
   <i type="int" name="NGY">    14</i>
   <i type="int" name="NGZ">   108</i>
   <i type="int" name="NGXF">    36</i>
   <i type="int" name="NGYF">    28</i>
   <i type="int" name="NGZF">   216</i>
   <i type="logical" name="ADDGRID"> F  </i>
  </separator>
  <separator name="ionic" >
   <i type="int" name="NSW">   300</i>
   <i type="int" name="IBRION">     2</i>
   <i type="int" name="ISIF">     2</i>
   <i name="PSTRESS">      0.00000000</i>
   <i name="EDIFFG">     -0.01000000</i>
   <i type="int" name="NFREE">     1</i>
   <i name="POTIM">      0.50000000</i>
   <i name="SMASS">     -3.00000000</i>
   <i name="SCALEE">      1.00000000</i>
  </separator>
  <separator name="ionic md" >
   <i name="TEBEG">      0.00010000</i>
   <i name="TEEND">      0.00010000</i>
   <i type="int" name="NBLOCK">     1</i>
   <i type="int" name="KBLOCK">   300</i>
   <i type="int" name="NPACO">   256</i>
   <i name="APACO">     16.00000000</i>
  </separator>
  <separator name="symmetry" >
   <i type="int" name="ISYM">     2</i>
   <i name="SYMPREC">      0.00001000</i>
  </separator>
  <separator name="dos" >
   <i type="logical" name="LORBIT"> F  </i>
   <v name="RWIGS">     -1.00000000</v>
   <i type="int" name="NEDOS">   301</i>
   <i name="EMIN">     10.00000000</i>
   <i name="EMAX">    -10.00000000</i>
   <i name="EFERMI">      0.00000000</i>
  </separator>
  <separator name="writing" >
   <i type="int" name="NWRITE">     2</i>
   <i type="logical" name="LWAVE"> F  </i>
   <i type="logical" name="LCHARG"> F  </i>
   <i type="logical" name="LPARD"> F  </i>
   <i type="logical" name="LVTOT"> F  </i>
   <i type="logical" name="LVHAR"> F  </i>
   <i type="logical" name="LELF"> F  </i>
   <i type="logical" name="LOPTICS"> F  </i>
   <v name="STM">      0.00000000      0.00000000      0.00000000      0.00000000      0.00000000      0.00000000      0.00000000</v>
  </separator>
  <separator name="performance" >
   <i type="int" name="NPAR">     1</i>
   <i type="int" name="NSIM">     4</i>
   <i type="int" name="NBLK">    -1</i>
   <i type="logical" name="LPLANE"> T  </i>
   <i type="logical" name="LSCALAPACK"> F  </i>
   <i type="logical" name="LSCAAWARE"> F  </i>
   <i type="logical" name="LSCALU"> F  </i>
   <i type="logical" name="LASYNC"> F  </i>
   <i type="logical" name="LORBITALREAL"> F  </i>
  </separator>
  <separator name="miscellaneous" >
   <i type="int" name="IDIOT">     3</i>
   <i type="logical" name="LMUSIC"> F  </i>
   <v name="POMASS">     55.84700000</v>
   <v name="DARWINR">      0.00000000</v>
   <v name="DARWINV">      1.00000000</v>
   <i type="logical" name="LCORR"> T  </i>
  </separator>
  <i type="logical" name="GGA_COMPAT"> T  </i>
  <i type="logical" name="LBERRY"> F  </i>
  <i type="int" name="ICORELEVEL">     0</i>
  <i type="logical" name="LDAU"> F  </i>
  <i type="int" name="I_CONSTRAINED_M">     0</i>
  <separator name="electronic exchange-correlation" >
   <i type="string" name="GGA">--</i>
   <i type="int" name="VOSKOWN">     0</i>
   <i type="logical" name="LHFCALC"> F  </i>
   <i type="string" name="PRECFOCK"></i>
   <i type="logical" name="LSYMGRAD"> F  </i>
   <i type="logical" name="LHFONE"> F  </i>
   <i type="logical" name="LRHFCALC"> F  </i>
   <i type="logical" name="LTHOMAS"> F  </i>
   <i type="logical" name="LMODELHF"> F  </i>
   <i name="ENCUT4O">     -1.00000000</i>
   <i type="int" name="EXXOEP">     0</i>
   <i type="int" name="FOURORBIT">     0</i>
   <i name="AEXX">      0.00000000</i>
   <i name="HFALPHA">      0.00000000</i>
   <i name="MCALPHA">      0.00000000</i>
   <i name="ALDAX">      1.00000000</i>
   <i name="AGGAX">      1.00000000</i>
   <i name="ALDAC">      1.00000000</i>
   <i name="AGGAC">      1.00000000</i>
   <i type="int" name="NKREDX">     1</i>
   <i type="int" name="NKREDY">     1</i>
   <i type="int" name="NKREDZ">     1</i>
   <i type="logical" name="SHIFTRED"> F  </i>
   <i type="logical" name="ODDONLY"> F  </i>
   <i type="logical" name="EVENONLY"> F  </i>
   <i type="int" name="LMAXFOCK">     0</i>
   <i type="int" name="NMAXFOCKAE">     0</i>
   <i type="logical" name="LFOCKAEDFT"> F  </i>
   <i name="HFSCREEN">      0.00000000</i>
   <i name="HFSCREENC">      0.00000000</i>
   <i type="int" name="NBANDSGWLOW">     0</i>
  </separator>
  <separator name="vdW DFT" >
   <i type="logical" name="LUSE_VDW"> F  </i>
   <i name="Zab_VDW">     -0.84910000</i>
   <i name="PARAM1">      0.12340000</i>
   <i name="PARAM2">      1.00000000</i>
   <i name="PARAM3">      0.00000000</i>
  </separator>
  <separator name="model GW" >
   <i type="int" name="MODEL_GW">     0</i>
   <i name="MODEL_EPS0">     12.34234605</i>
   <i name="MODEL_ALPHA">      1.00000000</i>
  </separator>
  <separator name="linear response parameters" >
   <i type="logical" name="LEPSILON"> F  </i>
   <i type="logical" name="LRPA"> F  </i>
   <i type="logical" name="LNABLA"> F  </i>
   <i type="logical" name="LVEL"> F  </i>
   <i type="int" name="KINTER">     0</i>
   <i name="CSHIFT">      0.10000000</i>
   <i name="OMEGAMAX">     -1.00000000</i>
   <i name="DEG_THRESHOLD">      0.00200000</i>
  </separator>
  <separator name="orbital magnetization" >
   <i type="logical" name="NUCIND"> F  </i>
   <v name="MAGPOS">      0.00000000      0.00000000      0.00000000</v>
   <i type="logical" name="LNICSALL"> T  </i>
   <i type="logical" name="ORBITALMAG"> F  </i>
   <i type="logical" name="LMAGBLOCH"> F  </i>
   <i type="logical" name="LCHIMAG"> F  </i>
   <i type="logical" name="LGAUGE"> T  </i>
   <i type="int" name="MAGATOM">     0</i>
   <v name="MAGDIPOL">      0.00000000      0.00000000      0.00000000</v>
   <v name="AVECCONST">      0.00000000      0.00000000      0.00000000</v>
  </separator>
  <separator name="response functions" >
   <i type="logical" name="LADDER"> F  </i>
   <i type="logical" name="LFXC"> F  </i>
   <i type="logical" name="LHARTREE"> T  </i>
   <i type="int" name="IBSE">     0</i>
   <i type="logical" name="LTCTE"> F  </i>
   <i type="logical" name="LTETE"> F  </i>
   <i type="logical" name="LTRIPLET"> F  </i>
   <i type="logical" name="LFXCEPS"> F  </i>
   <i type="logical" name="L2ORDER"> F  </i>
   <i type="logical" name="LUSEW"> F  </i>
   <i name="ENCUTGW">     -2.00000000</i>
   <i name="ENCUTGWSOFT">     -2.00000000</i>
   <i name="ENCUTLF">     -1.00000000</i>
   <i type="int" name="LMAXMP2">    -1</i>
   <i name="SCISSOR">      0.00000000</i>
   <i type="int" name="NOMEGA">     0</i>
   <i type="int" name="NOMEGAR">     0</i>
   <i type="int" name="NBANDSGW">    -1</i>
   <i type="int" name="NBANDSO">    -1</i>
   <i type="int" name="NBANDSV">    -1</i>
   <i type="int" name="NELM">     1</i>
   <i type="int" name="DIM">     3</i>
   <i type="int" name="ANTIRES">     0</i>
   <i name="OMEGAMAX">    -30.00000000</i>
   <i name="OMEGATL">   -200.00000000</i>
   <i type="int" name="OMEGAGRID">     0</i>
   <i name="CSHIFT">     -0.10000000</i>
   <i type="logical" name="SELFENERGY"> F  </i>
   <i type="logical" name="LSPECTRAL"> F  </i>
   <i type="logical" name="ODDONLYGW"> F  </i>
   <i type="logical" name="EVENONLYGW"> F  </i>
   <i type="int" name="NKREDLFX">     1</i>
   <i type="int" name="NKREDLFY">     1</i>
   <i type="int" name="NKREDLFZ">     1</i>
   <i type="int" name="MAXMEM">  1800</i>
   <i type="int" name="TELESCOPE">     0</i>
  </separator>
 </parameters>
 <atominfo>
  <atoms>      12 </atoms>
  <types>       1 </types>
  <array name="atoms" >
   <dimension dim="1">ion</dimension>
   <field type="string">element</field>
   <field type="int">atomtype</field>
   <set>
    <rc><c>Fe</c><c>   1</c></rc>
    <rc><c>Fe</c><c>   1</c></rc>
    <rc><c>Fe</c><c>   1</c></rc>
    <rc><c>Fe</c><c>   1</c></rc>
    <rc><c>Fe</c><c>   1</c></rc>
    <rc><c>Fe</c><c>   1</c></rc>
    <rc><c>Fe</c><c>   1</c></rc>
    <rc><c>Fe</c><c>   1</c></rc>
    <rc><c>Fe</c><c>   1</c></rc>
    <rc><c>Fe</c><c>   1</c></rc>
    <rc><c>Fe</c><c>   1</c></rc>
    <rc><c>Fe</c><c>   1</c></rc>
   </set>
  </array>
  <array name="atomtypes" >
   <dimension dim="1">type</dimension>
   <field type="int">atomspertype</field>
   <field type="string">element</field>
   <field>mass</field>
   <field>valence</field>
   <field type="string">pseudopotential</field>
   <set>
    <rc><c>  12</c><c>Fe</c><c>     55.84700000</c><c>      8.00000000</c><c>  PAW_PBE Fe 06Sep2000                  </c></rc>
   </set>
  </array>
 </atominfo>
 <structure name="initialpos" >
  <crystal>
   <varray name="basis" >
    <v>       3.98651217       0.00000000       0.00000000 </v>
    <v>       0.00000000       2.81888979       0.00000000 </v>
    <v>       0.00000000       0.00000000      21.96628042 </v>
   </varray>
   <i name="volume">    246.84692091 </i>
   <varray name="rec_basis" >
    <v>       0.25084584       0.00000000       0.00000000 </v>
    <v>       0.00000000       0.35474959       0.00000000 </v>
    <v>       0.00000000       0.00000000       0.04552432 </v>
   </varray>
  </crystal>
  <varray name="positions" >
   <v>       0.00000000       0.00000000       0.00000000 </v>
   <v>       0.50000000       0.50000000       0.00000000 </v>
   <v>       0.50000000       0.00000000       0.09074163 </v>
   <v>       0.00000000       0.50000000       0.09074163 </v>
   <v>       0.00000000       0.00000000       0.18148326 </v>
   <v>       0.50000000       0.50000000       0.18148326 </v>
   <v>       0.50000000       0.00000000       0.27222489 </v>
   <v>       0.00000000       0.50000000       0.27222489 </v>
   <v>       0.00000000       0.00000000       0.36296652 </v>
   <v>       0.50000000       0.50000000       0.36296652 </v>
   <v>       0.50000000       0.00000000       0.45370815 </v>
   <v>       0.00000000       0.50000000       0.45370815 </v>
  </varray>
  <varray name="selective"  type="logical" >
   <v type="logical" >  F  F  F </v>
   <v type="logical" >  F  F  F </v>
   <v type="logical" >  F  F  F </v>
   <v type="logical" >  F  F  F </v>
   <v type="logical" >  T  T  T </v>
   <v type="logical" >  T  T  T </v>
   <v type="logical" >  T  T  T </v>
   <v type="logical" >  T  T  T </v>
   <v type="logical" >  T  T  T </v>
   <v type="logical" >  T  T  T </v>
   <v type="logical" >  T  T  T </v>
   <v type="logical" >  T  T  T </v>
  </varray>
  <nose>
   <v>      -3.00000000       0.00000000       0.00010000       0.00010000 </v>
  </nose>
 </structure>
 <calculation>
  <scstep>
   <time name="dav">   14.06   14.07</time>
   <time name="total">   14.48   14.49</time>
   <energy>
    <i name="alphaZ">    403.18038838 </i>
    <i name="ewald">  21994.89367358 </i>
    <i name="hartreedc"> -29536.29041113 </i>
    <i name="XCdc">     46.39140245 </i>
    <i name="pawpsdc">   6656.72073468 </i>
    <i name="pawaedc">  -6749.17102895 </i>
    <i name="eentropy">     -0.00146695 </i>
    <i name="bandstr">    771.55966811 </i>
    <i name="atom">   7131.53793727 </i>
    <i name="e_fr_energy">    718.82089743 </i>
    <i name="e_wo_entrp">    718.82236438 </i>
    <i name="e_0_energy">    718.82126417 </i>
   </energy>
  </scstep>
  <scstep>
   <time name="dav">   14.04   14.06</time>
   <time name="total">   14.05   14.06</time>
   <energy>
    <i name="e_fr_energy">    -36.24396433 </i>
    <i name="e_wo_entrp">    -36.24300543 </i>
    <i name="e_0_energy">    -36.24372461 </i>
   </energy>
  </scstep>
  <scstep>
   <time name="dav">   15.67   15.68</time>
   <time name="total">   15.67   15.69</time>
   <energy>
    <i name="e_fr_energy">    -99.23679532 </i>
    <i name="e_wo_entrp">    -99.23423023 </i>
    <i name="e_0_energy">    -99.23615405 </i>
   </energy>
  </scstep>
  <scstep>
   <time name="dav">   20.39   20.41</time>
   <time name="total">   20.40   20.42</time>
   <energy>
    <i name="e_fr_energy">   -107.39912470 </i>
    <i name="e_wo_entrp">   -107.40825979 </i>
    <i name="e_0_energy">   -107.40140847 </i>
   </energy>
  </scstep>
  <scstep>
   <time name="dav">   18.51   18.53</time>
   <time name="total">   18.52   18.53</time>
   <energy>
    <i name="e_fr_energy">   -107.86311585 </i>
    <i name="e_wo_entrp">   -107.87289547 </i>
    <i name="e_0_energy">   -107.86556076 </i>
   </energy>
  </scstep>
  <scstep>
   <time name="dav">   20.39   20.41</time>
   <time name="total">   20.40   20.41</time>
   <energy>
    <i name="e_fr_energy">   -107.89615010 </i>
    <i name="e_wo_entrp">   -107.90336430 </i>
    <i name="e_0_energy">   -107.89795365 </i>
   </energy>
  </scstep>
  <scstep>
   <time name="dav">   18.90   18.91</time>
   <time name="total">   18.90   18.91</time>
   <energy>
    <i name="e_fr_energy">   -107.89979516 </i>
    <i name="e_wo_entrp">   -107.90626065 </i>
    <i name="e_0_energy">   -107.90141153 </i>
   </energy>
  </scstep>
  <scstep>
   <time name="dav">   18.00   18.02</time>
   <time name="total">   18.00   18.02</time>
   <energy>
    <i name="e_fr_energy">   -107.90066757 </i>
    <i name="e_wo_entrp">   -107.90697097 </i>
    <i name="e_0_energy">   -107.90224342 </i>
   </energy>
  </scstep>
  <scstep>
   <time name="dav">   14.19   14.20</time>
   <time name="total">   14.20   14.21</time>
   <energy>
    <i name="e_fr_energy">   -107.90080669 </i>
    <i name="e_wo_entrp">   -107.90707350 </i>
    <i name="e_0_energy">   -107.90237339 </i>
   </energy>
  </scstep>
  <scstep>
   <time name="dav">   12.17   12.18</time>
   <time name="total">   13.96   13.97</time>
   <energy>
    <i name="e_fr_energy">   -107.90084011 </i>
    <i name="e_wo_entrp">   -107.90709635 </i>
    <i name="e_0_energy">   -107.90240417 </i>
   </energy>
  </scstep>
  <scstep>
   <time name="diag">    3.60    3.60</time>
   <time name="diis">   13.30   13.31</time>
   <time name="orth">    0.14    0.14</time>
   <time name="total">   19.20   19.21</time>
   <energy>
    <i name="e_fr_energy">   -209.20805130 </i>
    <i name="e_wo_entrp">   -209.20947885 </i>
    <i name="e_0_energy">   -209.20840818 </i>
   </energy>
  </scstep>
  <scstep>
   <time name="diag">    3.61    3.61</time>
   <time name="diis">   11.28   11.29</time>
   <time name="orth">    0.15    0.15</time>
   <time name="total">   17.25   17.27</time>
   <energy>
    <i name="e_fr_energy">   -122.72290807 </i>
    <i name="e_wo_entrp">   -122.71954607 </i>
    <i name="e_0_energy">   -122.72206757 </i>
   </energy>
  </scstep>
  <scstep>
   <time name="diag">    3.60    3.61</time>
   <time name="diis">   11.30   11.32</time>
   <time name="orth">    0.15    0.15</time>
   <time name="total">   17.28   17.30</time>
   <energy>
    <i name="e_fr_energy">   -112.48374932 </i>
    <i name="e_wo_entrp">   -112.47128682 </i>
    <i name="e_0_energy">   -112.48063369 </i>
   </energy>
  </scstep>
  <scstep>
   <time name="diag">    3.60    3.61</time>
   <time name="diis">   11.29   11.30</time>
   <time name="orth">    0.15    0.15</time>
   <time name="total">   17.26   17.27</time>
   <energy>
    <i name="e_fr_energy">    -97.34073835 </i>
    <i name="e_wo_entrp">    -97.34225083 </i>
    <i name="e_0_energy">    -97.34111647 </i>
   </energy>
  </scstep>
  <scstep>
   <time name="diag">    3.60    3.61</time>
   <time name="diis">   12.72   12.74</time>
   <time name="orth">    0.15    0.15</time>
   <time name="total">   18.63   18.64</time>
   <energy>
    <i name="e_fr_energy">   -144.64866910 </i>
    <i name="e_wo_entrp">   -144.65057056 </i>
    <i name="e_0_energy">   -144.64914446 </i>
   </energy>
  </scstep>
  <scstep>
   <time name="diag">    3.62    3.62</time>
   <time name="diis">   11.84   11.85</time>
   <time name="orth">    0.14    0.15</time>
   <time name="total">   17.81   17.83</time>
   <energy>
    <i name="e_fr_energy">   -102.28100613 </i>
    <i name="e_wo_entrp">   -102.29093616 </i>
    <i name="e_0_energy">   -102.28348864 </i>
   </energy>
  </scstep>
  <scstep>
   <time name="diag">    3.60    3.60</time>
   <time name="diis">   11.79   11.80</time>
   <time name="orth">    0.14    0.15</time>
   <time name="total">   17.74   17.75</time>
   <energy>
    <i name="e_fr_energy">    -91.31752366 </i>
    <i name="e_wo_entrp">    -91.31776939 </i>
    <i name="e_0_energy">    -91.31758509 </i>
   </energy>
  </scstep>
  <scstep>
   <time name="diag">    3.59    3.59</time>
   <time name="diis">   11.74   11.74</time>
   <time name="orth">    0.14    0.14</time>
   <time name="total">   17.67   17.68</time>
   <energy>
    <i name="e_fr_energy">    -91.67069065 </i>
    <i name="e_wo_entrp">    -91.66429007 </i>
    <i name="e_0_energy">    -91.66909050 </i>
   </energy>
  </scstep>
  <scstep>
   <time name="diag">    3.60    3.61</time>
   <time name="diis">   11.31   11.32</time>
   <time name="orth">    0.15    0.15</time>
   <time name="total">   17.28   17.29</time>
   <energy>
    <i name="e_fr_energy">    -91.63130431 </i>
    <i name="e_wo_entrp">    -91.63383129 </i>
    <i name="e_0_energy">    -91.63193606 </i>
   </energy>
  </scstep>
  <scstep>
   <time name="diag">    3.60    3.60</time>
   <time name="diis">   11.66   11.67</time>
   <time name="orth">    0.14    0.14</time>
   <time name="total">   17.63   17.64</time>
   <energy>
    <i name="e_fr_energy">    -92.33594946 </i>
    <i name="e_wo_entrp">    -92.32544052 </i>
    <i name="e_0_energy">    -92.33332223 </i>
   </energy>
  </scstep>
  <scstep>
   <time name="diag">    3.59    3.59</time>
   <time name="diis">   11.58   11.59</time>
   <time name="orth">    0.14    0.14</time>
   <time name="total">   17.52   17.54</time>
   <energy>
    <i name="e_fr_energy">    -92.21562415 </i>
    <i name="e_wo_entrp">    -92.22573369 </i>
    <i name="e_0_energy">    -92.21815154 </i>
   </energy>
  </scstep>
  <scstep>
   <time name="diag">    3.60    3.61</time>
   <time name="diis">   13.58   13.59</time>
   <time name="orth">    0.14    0.14</time>
   <time name="total">   19.54   19.56</time>
   <energy>
    <i name="e_fr_energy">    -92.13428909 </i>
    <i name="e_wo_entrp">    -92.14405420 </i>
    <i name="e_0_energy">    -92.13673037 </i>
   </energy>
  </scstep>
  <scstep>
   <time name="diag">    3.61    3.61</time>
   <time name="diis">   13.08   13.09</time>
   <time name="orth">    0.14    0.14</time>
   <time name="total">   19.06   19.07</time>
   <energy>
    <i name="e_fr_energy">    -92.21626308 </i>
    <i name="e_wo_entrp">    -92.22671488 </i>
    <i name="e_0_energy">    -92.21887603 </i>
   </energy>
  </scstep>
  <scstep>
   <time name="diag">    3.60    3.60</time>
   <time name="diis">   11.33   11.34</time>
   <time name="orth">    0.14    0.14</time>
   <time name="total">   17.29   17.30</time>
   <energy>
    <i name="e_fr_energy">    -92.33085896 </i>
    <i name="e_wo_entrp">    -92.34345269 </i>
    <i name="e_0_energy">    -92.33400740 </i>
   </energy>
  </scstep>
  <scstep>
   <time name="diag">    3.59    3.59</time>
   <time name="diis">   11.29   11.30</time>
   <time name="orth">    0.14    0.14</time>
   <time name="total">   17.24   17.25</time>
   <energy>
    <i name="e_fr_energy">    -91.88256210 </i>
    <i name="e_wo_entrp">    -91.90061757 </i>
    <i name="e_0_energy">    -91.88707596 </i>
   </energy>
  </scstep>
  <scstep>
   <time name="diag">    3.61    3.61</time>
   <time name="diis">   11.52   11.53</time>
   <time name="orth">    0.15    0.15</time>
   <time name="total">   17.50   17.52</time>
   <energy>
    <i name="e_fr_energy">    -92.07890585 </i>
    <i name="e_wo_entrp">    -92.09958579 </i>
    <i name="e_0_energy">    -92.08407584 </i>
   </energy>
  </scstep>
  <scstep>
   <time name="diag">    3.62    3.62</time>
   <time name="diis">   11.35   11.36</time>
   <time name="orth">    0.14    0.15</time>
   <time name="total">   17.34   17.35</time>
   <energy>
    <i name="e_fr_energy">    -91.69847776 </i>
    <i name="e_wo_entrp">    -91.70799461 </i>
    <i name="e_0_energy">    -91.70085697 </i>
   </energy>
  </scstep>
  <scstep>
   <time name="diag">    3.60    3.60</time>
   <time name="diis">   11.46   11.47</time>
   <time name="orth">    0.14    0.14</time>
   <time name="total">   17.42   17.43</time>
   <energy>
    <i name="e_fr_energy">    -91.91523863 </i>
    <i name="e_wo_entrp">    -91.91130464 </i>
    <i name="e_0_energy">    -91.91425513 </i>
   </energy>
  </scstep>
  <scstep>
   <time name="diag">    3.60    3.61</time>
   <time name="diis">   11.25   11.26</time>
   <time name="orth">    0.15    0.15</time>
   <time name="total">   17.23   17.24</time>
   <energy>
    <i name="e_fr_energy">    -91.97935128 </i>
    <i name="e_wo_entrp">    -91.96874854 </i>
    <i name="e_0_energy">    -91.97670059 </i>
   </energy>
  </scstep>
  <scstep>
   <time name="diag">    3.60    3.61</time>
   <time name="diis">   13.38   13.39</time>
   <time name="orth">    0.14    0.14</time>
   <time name="total">   19.35   19.37</time>
   <energy>
    <i name="e_fr_energy">    -91.97653344 </i>
    <i name="e_wo_entrp">    -91.96481456 </i>
    <i name="e_0_energy">    -91.97360372 </i>
   </energy>
  </scstep>
  <scstep>
   <time name="diag">    3.60    3.60</time>
   <time name="diis">   11.40   11.41</time>
   <time name="orth">    0.14    0.14</time>
   <time name="total">   17.36   17.38</time>
   <energy>
    <i name="e_fr_energy">    -91.85603814 </i>
    <i name="e_wo_entrp">    -91.85504951 </i>
    <i name="e_0_energy">    -91.85579099 </i>
   </energy>
  </scstep>
  <scstep>
   <time name="diag">    3.59    3.59</time>
   <time name="diis">   12.48   12.49</time>
   <time name="orth">    0.14    0.14</time>
   <time name="total">   18.44   18.45</time>
   <energy>
    <i name="e_fr_energy">    -91.89321363 </i>
    <i name="e_wo_entrp">    -91.88837268 </i>
    <i name="e_0_energy">    -91.89200339 </i>
   </energy>
  </scstep>
  <scstep>
   <time name="diag">    3.61    3.62</time>
   <time name="diis">   11.36   11.37</time>
   <time name="orth">    0.14    0.14</time>
   <time name="total">   17.35   17.36</time>
   <energy>
    <i name="e_fr_energy">    -91.91126309 </i>
    <i name="e_wo_entrp">    -91.91356970 </i>
    <i name="e_0_energy">    -91.91183974 </i>
   </energy>
  </scstep>
  <scstep>
   <time name="diag">    3.61    3.61</time>
   <time name="diis">   11.62   11.64</time>
   <time name="orth">    0.15    0.15</time>
   <time name="total">   17.62   17.63</time>
   <energy>
    <i name="e_fr_energy">    -91.84267610 </i>
    <i name="e_wo_entrp">    -91.85530146 </i>
    <i name="e_0_energy">    -91.84583244 </i>
   </energy>
  </scstep>
  <scstep>
   <time name="diag">    3.58    3.58</time>
   <time name="diis">   11.27   11.28</time>
   <time name="orth">    0.15    0.15</time>
   <time name="total">   17.23   17.25</time>
   <energy>
    <i name="e_fr_energy">    -92.04835816 </i>
    <i name="e_wo_entrp">    -92.05331477 </i>
    <i name="e_0_energy">    -92.04959731 </i>
   </energy>
  </scstep>
  <scstep>
   <time name="diag">    3.60    3.60</time>
   <time name="diis">   11.83   11.84</time>
   <time name="orth">    0.14    0.15</time>
   <time name="total">   17.82   17.83</time>
   <energy>
    <i name="e_fr_energy">    -92.21753295 </i>
    <i name="e_wo_entrp">    -92.21537377 </i>
    <i name="e_0_energy">    -92.21699315 </i>
   </energy>
  </scstep>
  <scstep>
   <time name="diag">    3.61    3.61</time>
   <time name="diis">   11.31   11.32</time>
   <time name="orth">    0.14    0.14</time>
   <time name="total">   17.31   17.32</time>
   <energy>
    <i name="e_fr_energy">    -92.08550833 </i>
    <i name="e_wo_entrp">    -92.09257803 </i>
    <i name="e_0_energy">    -92.08727575 </i>
   </energy>
  </scstep>
  <scstep>
   <time name="diag">    3.60    3.60</time>
   <time name="diis">   11.67   11.68</time>
   <time name="orth">    0.14    0.14</time>
   <time name="total">   17.66   17.67</time>
   <energy>
    <i name="e_fr_energy">    -91.93900670 </i>
    <i name="e_wo_entrp">    -91.95229651 </i>
    <i name="e_0_energy">    -91.94232915 </i>
   </energy>
  </scstep>
  <scstep>
   <time name="diag">    3.61    3.61</time>
   <time name="diis">   12.30   12.32</time>
   <time name="orth">    0.14    0.14</time>
   <time name="total">   18.30   18.32</time>
   <energy>
    <i name="e_fr_energy">    -91.82031153 </i>
    <i name="e_wo_entrp">    -91.83204153 </i>
    <i name="e_0_energy">    -91.82324403 </i>
   </energy>
  </scstep>
  <scstep>
   <time name="diag">    3.60    3.60</time>
   <time name="diis">   13.11   13.12</time>
   <time name="orth">    0.15    0.15</time>
   <time name="total">   19.09   19.11</time>
   <energy>
    <i name="e_fr_energy">    -91.77615312 </i>
    <i name="e_wo_entrp">    -91.78706686 </i>
    <i name="e_0_energy">    -91.77888155 </i>
   </energy>
  </scstep>
  <scstep>
   <time name="diag">    3.60    3.60</time>
   <time name="diis">   11.31   11.32</time>
   <time name="orth">    0.14    0.14</time>
   <time name="total">   17.30   17.32</time>
   <energy>
    <i name="e_fr_energy">    -92.02039933 </i>
    <i name="e_wo_entrp">    -92.03222288 </i>
    <i name="e_0_energy">    -92.02335522 </i>
   </energy>
  </scstep>
  <scstep>
   <time name="diag">    3.60    3.61</time>
   <time name="diis">   11.93   11.94</time>
   <time name="orth">    0.14    0.15</time>
   <time name="total">   17.92   17.94</time>
   <energy>
    <i name="e_fr_energy">    -92.20334677 </i>
    <i name="e_wo_entrp">    -92.20896527 </i>
    <i name="e_0_energy">    -92.20475140 </i>
   </energy>
  </scstep>
  <scstep>
   <time name="diag">    3.58    3.58</time>
   <time name="diis">   11.56   11.57</time>
   <time name="orth">    0.14    0.14</time>
   <time name="total">   17.53   17.54</time>
   <energy>
    <i name="e_fr_energy">    -92.74634094 </i>
    <i name="e_wo_entrp">    -92.74944030 </i>
    <i name="e_0_energy">    -92.74711578 </i>
   </energy>
  </scstep>
  <scstep>
   <time name="diag">    3.61    3.61</time>
   <time name="diis">   11.98   11.99</time>
   <time name="orth">    0.15    0.14</time>
   <time name="total">   17.99   18.00</time>
   <energy>
    <i name="e_fr_energy">    -92.88507877 </i>
    <i name="e_wo_entrp">    -92.88966169 </i>
    <i name="e_0_energy">    -92.88622450 </i>
   </energy>
  </scstep>
  <scstep>
   <time name="diag">    3.62    3.62</time>
   <time name="diis">   12.24   12.25</time>
   <time name="orth">    0.14    0.14</time>
   <time name="total">   18.26   18.27</time>
   <energy>
    <i name="e_fr_energy">    -93.01193680 </i>
    <i name="e_wo_entrp">    -93.01121317 </i>
    <i name="e_0_energy">    -93.01175589 </i>
   </energy>
  </scstep>
  <scstep>
   <time name="diag">    3.59    3.59</time>
   <time name="diis">   13.48   13.49</time>
   <time name="orth">    0.14    0.14</time>
   <time name="total">   19.46   19.48</time>
   <energy>
    <i name="e_fr_energy">    -93.00161904 </i>
    <i name="e_wo_entrp">    -93.00271267 </i>
    <i name="e_0_energy">    -93.00189245 </i>
   </energy>
  </scstep>
  <scstep>
   <time name="diag">    3.61    3.61</time>
   <time name="diis">   11.77   11.78</time>
   <time name="orth">    0.14    0.15</time>
   <time name="total">   17.78   17.80</time>
   <energy>
    <i name="e_fr_energy">    -93.08334940 </i>
    <i name="e_wo_entrp">    -93.08189155 </i>
    <i name="e_0_energy">    -93.08298494 </i>
   </energy>
  </scstep>
  <scstep>
   <time name="diag">    3.60    3.60</time>
   <time name="diis">   11.40   11.41</time>
   <time name="orth">    0.15    0.15</time>
   <time name="total">   17.40   17.42</time>
   <energy>
    <i name="e_fr_energy">    -93.29193310 </i>
    <i name="e_wo_entrp">    -93.29188150 </i>
    <i name="e_0_energy">    -93.29192020 </i>
   </energy>
  </scstep>
  <scstep>
   <time name="diag">    3.58    3.59</time>
   <time name="diis">   11.99   12.00</time>
   <time name="orth">    0.14    0.14</time>
   <time name="total">   17.98   18.00</time>
   <energy>
    <i name="e_fr_energy">    -93.60560538 </i>
    <i name="e_wo_entrp">    -93.60262668 </i>
    <i name="e_0_energy">    -93.60486070 </i>
   </energy>
  </scstep>
  <scstep>
   <time name="diag">    3.60    3.60</time>
   <time name="diis">   13.12   13.13</time>
   <time name="orth">    0.14    0.14</time>
   <time name="total">   19.13   19.14</time>
   <energy>
    <i name="e_fr_energy">    -93.63669085 </i>
    <i name="e_wo_entrp">    -93.63828012 </i>
    <i name="e_0_energy">    -93.63708816 </i>
   </energy>
  </scstep>
  <scstep>
   <time name="diag">    3.60    3.60</time>
   <time name="diis">   12.18   12.19</time>
   <time name="orth">    0.14    0.14</time>
   <time name="total">   18.19   18.21</time>
   <energy>
    <i name="e_fr_energy">    -93.59378282 </i>
    <i name="e_wo_entrp">    -93.59944497 </i>
    <i name="e_0_energy">    -93.59519836 </i>
   </energy>
  </scstep>
  <scstep>
   <time name="diag">    3.59    3.59</time>
   <time name="diis">   12.24   12.25</time>
   <time name="orth">    0.14    0.15</time>
   <time name="total">   18.24   18.26</time>
   <energy>
    <i name="e_fr_energy">    -93.60532075 </i>
    <i name="e_wo_entrp">    -93.61138700 </i>
    <i name="e_0_energy">    -93.60683731 </i>
   </energy>
  </scstep>
  <scstep>
   <time name="diag">    3.61    3.61</time>
   <time name="diis">   11.42   11.43</time>
   <time name="orth">    0.14    0.15</time>
   <time name="total">   17.47   17.48</time>
   <energy>
    <i name="e_fr_energy">    -93.52711346 </i>
    <i name="e_wo_entrp">    -93.52929709 </i>
    <i name="e_0_energy">    -93.52765937 </i>
   </energy>
  </scstep>
  <scstep>
   <time name="diag">    3.60    3.61</time>
   <time name="diis">   11.78   11.79</time>
   <time name="orth">    0.15    0.15</time>
   <time name="total">   17.80   17.82</time>
   <energy>
    <i name="e_fr_energy">    -93.97141273 </i>
    <i name="e_wo_entrp">    -93.96486949 </i>
    <i name="e_0_energy">    -93.96977692 </i>
   </energy>
  </scstep>
  <scstep>
   <time name="diag">    3.58    3.58</time>
   <time name="diis">   11.84   11.85</time>
   <time name="orth">    0.14    0.14</time>
   <time name="total">   17.84   17.86</time>
   <energy>
    <i name="e_fr_energy">    -93.95023894 </i>
    <i name="e_wo_entrp">    -93.94654824 </i>
    <i name="e_0_energy">    -93.94931626 </i>
   </energy>
  </scstep>
  <scstep>
   <time name="diag">    3.60    3.60</time>
   <time name="diis">   11.66   11.67</time>
   <time name="orth">    0.14    0.15</time>
   <time name="total">   17.69   17.70</time>
   <energy>
    <i name="e_fr_energy">    -92.65732694 </i>
    <i name="e_wo_entrp">    -92.66451828 </i>
    <i name="e_0_energy">    -92.65912477 </i>
   </energy>
  </scstep>
  <scstep>
   <time name="diag">    3.61    3.61</time>
   <time name="diis">   12.64   12.65</time>
   <time name="orth">    0.15    0.15</time>
   <time name="total">   18.68   18.70</time>
   <energy>
    <i name="e_fr_energy">    -92.97108349 </i>
    <i name="e_wo_entrp">    -92.96396648 </i>
    <i name="e_0_energy">    -92.96930424 </i>
   </energy>
  </scstep>
  <scstep>
   <time name="diag">    3.60    3.60</time>
   <time name="diis">   12.12   12.13</time>
   <time name="orth">    0.14    0.14</time>
   <time name="total">   18.14   18.16</time>
   <energy>
    <i name="e_fr_energy">    -93.19906770 </i>
    <i name="e_wo_entrp">    -93.19577517 </i>
    <i name="e_0_energy">    -93.19824457 </i>
   </energy>
  </scstep>
  <scstep>
   <time name="diag">    3.62    3.62</time>
   <time name="diis">   11.45   11.46</time>
   <time name="orth">    0.14    0.14</time>
   <time name="total">   17.49   17.51</time>
   <energy>
    <i name="e_fr_energy">    -93.89397764 </i>
    <i name="e_wo_entrp">    -93.89284669 </i>
    <i name="e_0_energy">    -93.89369490 </i>
   </energy>
  </scstep>
  <scstep>
   <time name="diag">    3.60    3.60</time>
   <time name="diis">   12.08   12.09</time>
   <time name="orth">    0.14    0.15</time>
   <time name="total">   16.25   16.26</time>
   <energy>
    <i name="alphaZ">    403.18038838 </i>
    <i name="ewald">  21994.89367358 </i>
    <i name="hartreedc"> -29459.88084506 </i>
    <i name="XCdc">     51.04848574 </i>
    <i name="pawpsdc">   8537.42108272 </i>
    <i name="pawaedc">  -8646.89964057 </i>
    <i name="eentropy">      0.00029284 </i>
    <i name="bandstr">   -105.56736554 </i>
    <i name="atom">   7131.53793727 </i>
    <i name="e_fr_energy">    -94.26599063 </i>
    <i name="e_wo_entrp">    -94.26628348 </i>
    <i name="e_0_energy">    -94.26606385 </i>
   </energy>
  </scstep>
  <structure>
   <crystal>
    <varray name="basis" >
     <v>       3.98651217       0.00000000       0.00000000 </v>
     <v>       0.00000000       2.81888979       0.00000000 </v>
     <v>       0.00000000       0.00000000      21.96628042 </v>
    </varray>
    <i name="volume">    246.84692091 </i>
    <varray name="rec_basis" >
     <v>       0.25084584       0.00000000       0.00000000 </v>
     <v>       0.00000000       0.35474959       0.00000000 </v>
     <v>       0.00000000       0.00000000       0.04552432 </v>
    </varray>
   </crystal>
   <varray name="positions" >
    <v>       0.00000000       0.00000000       0.00000000 </v>
    <v>       0.50000000       0.50000000       0.00000000 </v>
    <v>       0.50000000       0.00000000       0.09074163 </v>
    <v>       0.00000000       0.50000000       0.09074163 </v>
    <v>       0.00000000       0.00000000       0.18148326 </v>
    <v>       0.50000000       0.50000000       0.18148326 </v>
    <v>       0.50000000       0.00000000       0.27222489 </v>
    <v>       0.00000000       0.50000000       0.27222489 </v>
    <v>       0.00000000       0.00000000       0.36296652 </v>
    <v>       0.50000000       0.50000000       0.36296652 </v>
    <v>       0.50000000       0.00000000       0.45370815 </v>
    <v>       0.00000000       0.50000000       0.45370815 </v>
   </varray>
  </structure>
  <varray name="forces" >
   <v>       0.00000000       0.00000000       0.42618539 </v>
   <v>       0.00000000       0.00000000       0.42618539 </v>
   <v>       0.00000000       0.00000000      -0.43493168 </v>
   <v>       0.00000000       0.00000000      -0.43493168 </v>
   <v>       0.00000000       0.00000000       0.16684160 </v>
   <v>       0.00000000       0.00000000       0.16684160 </v>
   <v>       0.00000000       0.00000000      -0.09897990 </v>
   <v>       0.00000000       0.00000000      -0.09897990 </v>
   <v>       0.00000000       0.00000000      -0.04865570 </v>
   <v>       0.00000000       0.00000000      -0.04865570 </v>
   <v>       0.00000000       0.00000000      -0.01045970 </v>
   <v>       0.00000000       0.00000000      -0.01045970 </v>
  </varray>
  <varray name="stress" >
   <v>     -52.30419223       0.00000000       0.00000000 </v>
   <v>       0.00000000     -50.98733238       0.00000000 </v>
   <v>       0.00000000       0.00000000     -51.58684851 </v>
  </varray>
  <energy>
   <i name="e_fr_energy">    -94.26599063 </i>
   <i name="e_wo_entrp">    -94.26606385 </i>
   <i name="e_0_energy">      0.00029284 </i>
  </energy>
  <time name="totalsc"> 1075.89 1076.83</time>
 </calculation>
v>
    <v>       0.50000000       0.50000000       0.14872436 </v>
    <v>       0.50000000       0.00000000       0.22302854 </v>
    <v>       0.00000000       0.00000000       0.29151363 </v>
    <v>       0.50000000       0.50000000       0.29151363 </v>
    <v>       0.50000000       0.00000000       0.36529862 </v>
   </varray>
  </structure>
  <varray name="forces" >
   <v>       0.00000000       0.00000000       0.59142966 </v>
   <v>       0.00000000       0.00000000       0.59142966 </v>
   <v>       0.00000000       0.00000000      -0.24293352 </v>
   <v>       0.00000000       0.00000000      -0.20226639 </v>
   <v>       0.00000000       0.00000000      -0.20226639 </v>
   <v>       0.00000000       0.00000000      -0.51360175 </v>
   <v>       0.00000000       0.00000000       0.22877475 </v>
   <v>       0.00000000       0.00000000       0.22877475 </v>
   <v>       0.00000000       0.00000000      -0.47934076 </v>
  </varray>
  <varray name="stress" >
   <v>     -56.37050271       0.00000000       0.00000000 </v>
   <v>       0.00000000     -56.37050271       0.00000000 </v>
   <v>       0.00000000       0.00000000     -25.01416173 </v>
  </varray>
  <energy>
   <i name="e_fr_energy">    -65.14263588 </i>
   <i name="e_wo_entrp">    -65.13977052 </i>
   <i name="e_0_energy">     -0.01146142 </i>
  </energy>
  <time name="totalsc">  215.24  215.44</time>
 </calculation>
 <calculation>
  <scstep>
   <time name="dav">    7.50    7.51</time>
   <time name="total">    8.90    8.90</time>
   <energy>
    <i name="alphaZ">    184.94038251 </i>
    <i name="ewald">  10571.97362033 </i>
    <i name="hartreedc"> -15944.13907950 </i>
    <i name="XCdc">     36.68566878 </i>
    <i name="pawpsdc">   5948.35218880 </i>
    <i name="pawaedc">  -6028.92169020 </i>
    <i name="eentropy">     -0.01039625 </i>
    <i name="bandstr">   -182.63982268 </i>
    <i name="atom">   5348.65345295 </i>
    <i name="e_fr_energy">    -65.10567526 </i>
    <i name="e_wo_entrp">    -65.09527901 </i>
    <i name="e_0_energy">    -65.10307620 </i>
   </energy>
  </scstep>
  <scstep>
   <time name="diag">    1.95    1.95</time>
   <time name="diis">    6.18    6.18</time>
   <time name="orth">    0.08    0.08</time>
   <time name="total">    9.60    9.61</time>
   <energy>
    <i name="e_fr_energy">    -65.20072417 </i>
    <i name="e_wo_entrp">    -65.19081709 </i>
    <i name="e_0_energy">    -65.19824740 </i>
   </energy>
  </scstep>
  <scstep>
   <time name="diag">    1.94    1.95</time>
   <time name="diis">    6.03    6.04</time>
   <time name="orth">    0.08    0.08</time>
   <time name="total">    9.44    9.45</time>
   <energy>
    <i name="e_fr_energy">    -65.19056695 </i>
    <i name="e_wo_entrp">    -65.19163337 </i>
    <i name="e_0_energy">    -65.19083356 </i>
   </energy>
  </scstep>
  <scstep>
   <time name="diag">    1.95    1.95</time>
   <time name="diis">    6.30    6.31</time>
   <time name="orth">    0.08    0.08</time>
   <time name="total">    9.72    9.73</time>
   <energy>
    <i name="e_fr_energy">    -65.18662577 </i>
    <i name="e_wo_entrp">    -65.18323145 </i>
    <i name="e_0_energy">    -65.18577719 </i>
   </energy>
  </scstep>
  <scstep>
   <time name="diag">    1.93    1.93</time>
   <time name="diis">    6.03    6.03</time>
   <time name="orth">    0.08    0.08</time>
   <time name="total">    9.43    9.44</time>
   <energy>
    <i name="e_fr_energy">    -65.14936981 </i>
    <i name="e_wo_entrp">    -65.13785644 </i>
    <i name="e_0_energy">    -65.14649147 </i>
   </energy>
  </scstep>
  <scstep>
   <time name="diag">    1.96    1.96</time>
   <time name="diis">    6.30    6.31</time>
   <time name="orth">    0.08    0.08</time>
   <time name="total">    9.74    9.74</time>
   <energy>
    <i name="e_fr_energy">    -65.15112135 </i>
    <i name="e_wo_entrp">    -65.14049095 </i>
    <i name="e_0_energy">    -65.14846375 </i>
   </energy>
  </scstep>
  <scstep>
   <time name="diag">    1.95    1.95</time>
   <time name="diis">    6.69    6.70</time>
   <time name="orth">    0.08    0.08</time>
   <time name="total">   10.12   10.13</time>
   <energy>
    <i name="e_fr_energy">    -65.15101019 </i>
    <i name="e_wo_entrp">    -65.13959362 </i>
    <i name="e_0_energy">    -65.14815605 </i>
   </energy>
  </scstep>
  <scstep>
   <time name="diag">    1.94    1.94</time>
   <time name="diis">    6.07    6.07</time>
   <time name="orth">    0.08    0.08</time>
   <time name="total">    9.48    9.49</time>
   <energy>
    <i name="e_fr_energy">    -65.15054574 </i>
    <i name="e_wo_entrp">    -65.13967934 </i>
    <i name="e_0_energy">    -65.14782914 </i>
   </energy>
  </scstep>
  <scstep>
   <time name="diag">    1.95    1.95</time>
   <time name="diis">    6.42    6.43</time>
   <time name="orth">    0.08    0.08</time>
   <time name="total">    9.85    9.86</time>
   <energy>
    <i name="e_fr_energy">    -65.15047619 </i>
    <i name="e_wo_entrp">    -65.13971283 </i>
    <i name="e_0_energy">    -65.14778535 </i>
   </energy>
  </scstep>
  <scstep>
   <time name="diag">    1.95    1.95</time>
   <time name="diis">    6.08    6.09</time>
   <time name="orth">    0.08    0.08</time>
   <time name="total">    9.50    9.51</time>
   <energy>
    <i name="e_fr_energy">    -65.15033573 </i>
    <i name="e_wo_entrp">    -65.13928336 </i>
    <i name="e_0_energy">    -65.14757263 </i>
   </energy>
  </scstep>
  <scstep>
   <time name="diag">    1.94    1.94</time>
   <time name="diis">    6   <time name="dav">   10.57   10.58</time>
   <time name="total">   12.30   12.31</time>
   <energy>
    <i name="alphaZ">    328.78290224 </i>
    <i name="ewald">  19419.77395264 </i>
    <i name="hartreedc"> -26727.80332118 </i>
    <i name="XCdc">     45.72065007 </i>
    <i name="pawpsdc">   8154.00572487 </i>
    <i name="pawaedc">  -8257.64188204 </i>
    <i name="eentropy">     -0.01635061 </i>
    <i name="bandstr">   -184.41486212 </i>
    <i name="atom">   7131.53793727 </i>
    <i name="e_fr_energy">    -90.05524886 </i>
    <i name="e_wo_entrp">    -90.03889825 </i>
    <i name="e_0_energy">    -90.05116121 </i>
   </energy>
  </scstep>
  <scstep>
   <time name="diag">    2.60    2.60</time>
   <time name="diis">    9.89    9.91</time>
   <time name="orth">    0.13    0.13</time>
   <time name="total">   14.34   14.36</time>
   <energy>
    <i name="e_fr_energy">   -131.51288955 </i>
    <i name="e_wo_entrp">   -131.50760236 </i>
    <i name="e_0_energy">   -131.51156775 </i>
   </energy>
  </scstep>
  <scstep>
   <time name="diag">    2.60    2.60</time>
   <time name="diis">    8.39    8.40</time>
   <time name="orth">    0.13    0.13</time>
   <time name="total">   12.86   12.88</time>
   <energy>
    <i name="e_fr_energy">   -104.51181884 </i>
    <i name="e_wo_entrp">   -104.50344117 </i>
    <i name="e_0_energy">   -104.50972442 </i>
   </energy>
  </scstep>
  <scstep>
   <time name="diag">    2.58    2.59</time>
   <time name="diis">    8.58    8.59</time>
   <time name="orth">    0.13    0.13</time>
   <time name="total">   13.02   13.04</time>
   <energy>
    <i name="e_fr_energy">    -98.71642433 </i>
    <i name="e_wo_entrp">    -98.72659718 </i>
    <i name="e_0_energy">    -98.71896754 </i>
   </energy>
  </scstep>
  <scstep>
   <time name="diag">    2.60    2.61</time>
   <time name="diis">    8.98    9.00</time>
   <time name="orth">    0.13    0.13</time>
   <time name="total">   13.45   13.47</time>
   <energy>
    <i name="e_fr_energy">    -92.26449962 </i>
    <i name="e_wo_entrp">    -92.26668147 </i>
    <i name="e_0_energy">    -92.26504508 </i>
   </energy>
  </scstep>
  <scstep>
   <time name="diag">    2.60    2.60</time>
   <time name="diis">    8.66    8.67</time>
   <time name="orth">    0.13    0.13</time>
   <time name="total">   13.12   13.13</time>
   <energy>
    <i name="e_fr_energy">    -90.75592142 </i>
    <i name="e_wo_entrp">    -90.75394050 </i>
    <i name="e_0_energy">    -90.75542619 </i>
   </energy>
  </scstep>
  <scstep>
   <time name="diag">    2.60    2.60</time>
   <time name="diis">    8.84    8.85</time>
   <time name="orth">    0.13    0.13</time>
   <time name="total">   13.30   13.32</time>
   <energy>
    <i name="e_fr_energy">    -90.25713437 </i>
    <i name="e_wo_entrp">    -90.23123953 </i>
    <i name="e_0_energy">    -90.25066066 </i>
   </energy>
  </scstep>
  <scstep>
   <time name="diag">    2.59    2.59</time>
   <time name="diis">    8.52    8.53</time>
   <time name="orth">    0.13    0.13</time>
   <time name="total">   12.98   13.00</time>
   <energy>
    <i name="e_fr_energy">    -89.74388129 </i>
    <i name="e_wo_entrp">    -89.74481231 </i>
    <i name="e_0_energy">    -89.74411405 </i>
   </energy>
  </scstep>
  <scstep>
   <time name="diag">    2.61    2.61</time>
   <time name="diis">    8.41    8.42</time>
   <time name="orth">    0.13    0.13</time>
   <time name="total">   12.90   12.91</time>
   <energy>
    <i name="e_fr_energy">    -89.47735298 </i>
    <i name="e_wo_entrp">    -89.47450295 </i>
    <i name="e_0_energy">    -89.47664047 </i>
   </energy>
  </scstep>
  <scstep>
   <time name="diag">    2.60    2.60</time>
   <time name="diis">    9.28    9.29</time>
   <time name="orth">    0.14    0.13</time>
   <time name="total">   13.74   13.75</time>
   <energy>
    <i name="e_fr_energy">    -89.20003708 </i>
    <i name="e_wo_entrp">    -89.19047154 </i>
    <i name="e_0_energy">    -89.19764570 </i>
   </energy>
  </scstep>
  <scstep>
   <time name="diag">    2.60    2.60</time>
   <time name="diis">    8.80    8.80</time>
   <time name="orth">    0.13    0.13</time>
   <time name="total">   13.28   13.29</time>
   <energy>
    <i name="e_fr_energy">    -89.49238647 </i>
    <i name="e_wo_entrp">    -89.49086918 </i>
    <i name="e_0_energy">    -89.49200715 </i>
   </energy>
  </scstep>
  <scstep>
   <time name="diag">    2.62    2.62</time>
   <time name="diis">    8.57    8.58</time>
   <time name="orth">    0.13    0.13</time>
   <time name="total">   13.06   13.07</time>
   <energy>
    <i name="e_fr_energy">    -89.23418083 </i>
    <i name="e_wo_entrp">    -89.22070955 </i>
    <i name="e_0_energy">    -89.23081301 </i>
   </energy>
  </scstep>
  <scstep>
   <time name="diag">    2.61    2.61</time>
   <time name="diis">    9.90    9.92</time>
   <time name="orth">    0.13    0.13</time>
   <time name="total">   14.39   14.40</time>
   <energy>
    <i name="e_fr_energy">    -89.20780470 </i>
    <i name="e_wo_entrp">    -89.19546089 </i>
    <i name="e_0_energy">    -89.20471875 </i>
   </energy>
  </scstep>
  <scstep>
   <time name="diag">    2.61    2.61</time>
   <time name="diis">    8.48    8.49</time>
   <time name="orth">    0.13    0.13</time>
   <time name="total">   12.97   12.98</time>
   <energy>
    <i name="e_fr_energy">    -89.17431063 </i>
    <i name="e_wo_entrp">    -89.16924874 </i>
    <i name="e_0_energy">    -89.17304516 </i>
   </energy>
  </scstep>
  <scstep>
   <time name="diag">    2.60    2.59</time>
   <time name="diis">    8.73    8.74</time>
   <time name="orth">    0.13    0.13</time>
   <time name="total">   13.19   13.20</time>
   <energy>
    <i name="e_fr_energy">    -88.95080533 </i>
    <i name="e_wo_entrp">    -88.96197913 </i>
    <i name="e_0_energy">    -88.95359878 </i>
   </energy>
  </scstep>
  <scstep>
   <time name="diag">    2.61    2.61</time>
   <time name="diis">    9.48    9.49</time>
   <time name="orth">    0.13    0.13</time>
   <time name="total">   13.97   13.99</time>
   <energy>
    <i name="e_fr_energy">    -88.97175888 </i>
    <i name="e_wo_entrp">    -88.98837887 </i>
    <i name="e_0_energy">    -88.97591388 </i>
   </energy>
  </scstep>
  <scstep>
   <time name="diag">    2.61    2.61</time>
   <time name="diis">    8.42    8.43</time>
   <time name="orth">    0.13    0.13</time>
   <time name="total">   12.91   12.92</time>
   <energy>
    <i name="e_fr_energy">    -88.98780884 </i>
    <i name="e_wo_entrp">    -88.98870634 </i>
    <i name="e_0_energy">    -88.98803322 </i>
   </energy>
  </scstep>
  <scstep>
   <time name="diag">    2.60    2.60</time>
   <time name="diis">    9.18    9.19</time>
   <time name="orth">    0.13    0.13</time>
   <time name="total">   13.66   13.67</time>
   <energy>
    <i name="e_fr_energy">    -89.09582091 </i>
    <i name="e_wo_entrp">    -89.08651379 </i>
    <i name="e_0_energy">    -89.09349413 </i>
   </energy>
  </scstep>
  <scstep>
   <time name="diag">    2.60    2.60</time>
   <time name="diis">    8.64    8.65</time>
   <time name="orth">    0.13    0.13</time>
   <time name="total">   13.12   13.13</time>
   <energy>
    <i name="e_fr_energy">    -89.37322424 </i>
    <i name="e_wo_entrp">    -89.34809635 </i>
    <i name="e_0_energy">    -89.36694227 </i>
   </energy>
  </scstep>
  <scstep>
   <time name="diag">    2.61    2.61</time>
   <time name="diis">    9.35    9.36</time>
   <time name="orth">    0.13    0.13</time>
   <time name="total">   13.85   13.86</time>
   <energy>
    <i name="e_fr_energy">    -89.61535821 </i>
    <i name="e_wo_entrp">    -89.60415534 </i>
    <i name="e_0_energy">    -89.61255749 </i>
   </energy>
  </scstep>
  <scstep>
   <time name="diag">    2.62    2.62</time>
   <time name="diis">    9.64    9.65</time>
   <time name="orth">    0.13    0.13</time>
   <time name="total">   14.14   14.15</time>
   <energy>
    <i name="e_fr_energy">    -89.65029487 </i>
    <i name="e_wo_entrp">    -89.63852547 </i>
    <i name="e_0_energy">    -89.64735252 </i>
   </energy>
  </scstep>
  <scstep>
   <time name="diag">    2.61    2.61</time>
   <time name="diis">   10.12   10.13</time>
   <time name="orth">    0.13    0.13</time>
   <time name="total">   14.62   14.63</time>
   <energy>
    <i name="e_fr_energy">    -89.66228466 </i>
    <i name="e_wo_entrp">    -89.65036729 </i>
    <i name="e_0_energy">    -89.65930532 </i>
   </energy>
  </scstep>
  <scstep>
   <time name="diag">    2.59    2.59</time>
   <time name="diis">    8.56    8.57</time>
   <time name="orth">    0.13    0.13</time>
   <time name="total">   13.04   13.05</time>
   <energy>
    <i name="e_fr_energy">    -89.58335129 </i>
    <i name="e_wo_entrp">    -89.56984366 </i>
    <i name="e_0_energy">    -89.57997438 </i>
   </energy>
  </scstep>
  <scstep>
   <time name="diag">    2.60    2.61</time>
   <time name="diis">    9.04    9.05</time>
   <time name="orth">    0.14    0.13</time>
   <time name="total">   13.55   13.56</time>
   <energy>
    <i name="e_fr_energy">    -89.54387485 </i>
    <i name="e_wo_entrp">    -89.52753886 </i>
    <i name="e_0_energy">    -89.53979085 </i>
   </energy>
  </scstep>
  <scstep>
   <time name="diag">    2.61    2.61</time>
   <time name="diis">    8.68    8.69</time>
   <time name="orth">    0.13    0.13</time>
   <time name="total">   13.18   13.19</time>
   <energy>
    <i name="e_fr_energy">    -89.59625416 </i>
    <i name="e_wo_entrp">    -89.57749907 </i>
    <i name="e_0_energy">    -89.59156539 </i>
   </energy>
  </scstep>
  <scstep>
   <time name="diag">    2.61    2.61</time>
   <time name="diis">    8.52    8.53</time>
   <time name="orth">    0.13    0.13</time>
   <time name="total">   13.02   13.04</time>
   <energy>
    <i name="e_fr_energy">    -89.47281599 </i>
    <i name="e_wo_entrp">    -89.45682136 </i>
    <i name="e_0_energy">    -89.46881733 </i>
   </energy>
  </scstep>
  <scstep>
   <time name="diag">    2.60    2.61</time>
   <time name="diis">    8.58    8.59</time>
   <time name="orth">    0.13    0.13</time>
   <time name="total">   13.09   13.10</time>
   <energy>
    <i name="e_fr_energy">    -89.25914280 </i>
    <i name="e_wo_entrp">    -89.23842726 </i>
    <i name="e_0_energy">    -89.25396392 </i>
   </energy>
  </scstep>
  <scstep>
   <time name="diag">    2.60    2.61</time>
   <time name="diis">    9.16    9.16</time>
   <time name="orth">    0.13    0.13</time>
   <time name="total">   13.65   13.67</time>
   <energy>
    <i name="e_fr_energy">    -89.08698590 </i>
    <i name="e_wo_entrp">    -89.06082678 </i>
    <i name="e_0_energy">    -89.08044612 </i>
   </energy>
  </scstep>
  <scstep>
   <time name="diag">    2.62    2.62</time>
   <time name="diis">    8.90    8.90</time>
   <time name="orth">    0.13    0.13</time>
   <time name="total">   13.41   13.42</time>
   <energy>
    <i name="e_fr_energy">    -88.90730909 </i>
    <i name="e_wo_entrp">    -88.88013219 </i>
    <i name="e_0_energy">    -88.90051487 </i>
   </energy>
  </scstep>
  <scstep>
   <time name="diag">    2.62    2.62</time>
   <time name="diis">    9.45    9.46</time>
   <time name="orth">    0.13    0.13</time>
   <time name="total">   13.96   13.98</time>
   <energy>
    <i name="e_fr_energy">    -88.95522988 </i>
    <i name="e_wo_entrp">    -88.93000263 </i>
    <i name="e_0_energy">    -88.94892307 </i>
   </energy>
  </scstep>
  <scstep>
   <time name="diag">    2.58    2.58</time>
   <time name="diis">    8.61    8.62</time>
   <time name="orth">    0.13    0.13</time>
   <time name="total">   13.09   13.11</time>
   <energy>
    <i name="e_fr_energy">    -89.20132766 </i>
    <i name="e_wo_entrp">    -89.18636109 </i>
    <i name="e_0_energy">    -89.19758602 </i>
   </energy>
  </scstep>
  <scstep>
   <time name="diag">    2.60    2.61</time>
   <time name="diis">    8.78    8.79</time>
   <time name="orth">    0.13    0.13</time>
   <time name="total">   13.28   13.30</time>
   <energy>
    <i name="e_fr_energy">    -89.35354740 </i>
    <i name="e_wo_entrp">    -89.35797709 </i>
    <i name="e_0_energy">    -89.35465482 </i>
   </energy>
  </scstep>
  <scstep>
   <time name="diag">    2.61    2.62</time>
   <time name="diis">    8.64    8.66</time>
   <time name="orth">    0.13    0.13</time>
   <time name="total">   13.17   13.19</time>
   <energy>
    <i name="e_fr_energy">    -89.57902745 </i>
    <i name="e_wo_entrp">    -89.59058140 </i>
    <i name="e_0_energy">    -89.58191593 </i>
   </energy>
  </scstep>
  <scstep>
   <time name="diag">    2.60    2.61</time>
   <time name="diis">    9.30    9.31</time>
   <time name="orth">    0.13    0.13</time>
   <time name="total">   13.80   13.83</time>
   <energy>
    <i name="e_fr_energy">    -89.61545197 </i>
    <i name="e_wo_entrp">    -89.63181536 </i>
    <i name="e_0_energy">    -89.61954282 </i>
   </energy>
  </scstep>
  <scstep>
   <time name="diag">    2.60    2.60</time>
   <time name="diis">    8.72    8.74</time>
   <time name="orth">    0.13    0.13</time>
   <time name="total">   13.23   13.25</time>
   <energy>
    <i name="e_fr_energy">    -89.75896807 </i>
    <i name="e_wo_entrp">    -89.77095852 </i>
    <i name="e_0_energy">    -89.76196568 </i>
   </energy>
  </scstep>
  <scstep>
   <time name="diag">    2.60    2.60</time>
   <time name="diis">    9.83    9.85</time>
   <time name="orth">    0.13    0.13</time>
   <time name="total">   14.34   14.36</time>
   <energy>
    <i name="e_fr_energy">    -89.76893141 </i>
    <i name="e_wo_entrp">    -89.77901604 </i>
    <i name="e_0_energy">    -89.77145257 </i>
   </energy>
  </scstep>
  <scstep>
   <time name="diag">    2.62    2.62</time>
   <time name="diis">    8.69    8.71</time>
   <time name="orth">    0.13    0.13</time>
   <time name="total">   13.23   13.25</time>
   <energy>
    <i name="e_fr_energy">    -89.77123481 </i>
    <i name="e_wo_entrp">    -89.78117110 </i>
    <i name="e_0_energy">    -89.77371888 </i>
   </energy>
  </scstep>
  <scstep>
   <time name="diag">    2.60    2.61</time>
   <time name="diis">    8.75    8.76</time>
   <time name="orth">    0.13    0.13</time>
   <time name="total">   13.27   13.29</time>
   <energy>
    <i name="e_fr_energy">    -89.78320939 </i>
    <i name="e_wo_entrp">    -89.79373932 </i>
    <i name="e_0_energy">    -89.78584187 </i>
   </energy>
  </scstep>
  <scstep>
   <time name="diag">    2.62    2.62</time>
   <time name="diis">    8.60    8.61</time>
   <time name="orth">    0.13    0.13</time>
   <time name="total">   13.14   13.17</time>
   <energy>
    <i name="e_fr_energy">    -89.86169593 </i>
    <i name="e_wo_entrp">    -89.87834191 </i>
    <i name="e_0_energy">    -89.86585743 </i>
   </energy>
  </scstep>
  <scstep>
   <time name="diag">    2.59    2.59</time>
   <time name="diis">    8.78    8.79</time>
   <time name="orth">    0.13    0.13</time>
   <time name="total">   13.29   13.31</time>
   <energy>
    <i name="e_fr_energy">    -90.04370592 </i>
    <i name="e_wo_entrp">    -90.04572566 </i>
    <i name="e_0_energy">    -90.04421085 </i>
   </energy>
  </scstep>
  <scstep>
   <time name="diag">    2.60    2.61</time>
   <time name="diis">    9.36    9.37</time>
   <time name="orth">    0.13    0.13</time>
   <time name="total">   13.90   13.92</time>
   <energy>
    <i name="e_fr_energy">    -90.14711826 </i>
    <i name="e_wo_entrp">    -90.13384230 </i>
    <i name="e_0_energy">    -90.14379927 </i>
   </energy>
  </scstep>
  <scstep>
   <time name="diag">    2.60    2.61</time>
   <time name="diis">    9.75    9.77</time>
   <time name="orth">    0.13    0.13</time>
   <time name="total">   14.30   14.32</time>
   <energy>
    <i name="e_fr_energy">    -90.24722425 </i>
    <i name="e_wo_entrp">    -90.24061489 </i>
    <i name="e_0_energy">    -90.24557191 </i>
   </energy>
  </scstep>
  <scstep>
   <time name="diag">    2.60    2.61</time>
   <time name="diis">    8.79    8.80</time>
   <time name="orth">    0.13    0.13</time>
   <time name="total">   13.32   13.35</time>
   <energy>
    <i name="e_fr_energy">    -90.23678929 </i>
    <i name="e_wo_entrp">    -90.23048560 </i>
    <i name="e_0_energy">    -90.23521337 </i>
   </energy>
  </scstep>
  <scstep>
   <time name="diag">    2.60    2.60</time>
   <time name="diis">    9.33    9.35</time>
   <time name="orth">    0.13    0.13</time>
   <time name="total">   13.87   13.89</time>
   <energy>
    <i name="e_fr_energy">    -90.23358603 </i>
    <i name="e_wo_entrp">    -90.22807648 </i>
    <i name="e_0_energy">    -90.23220864 </i>
   </energy>
  </scstep>
  <scstep>
   <time name="diag">    2.59    2.60</time>
   <time name="diis">    8.90    8.92</time>
   <time name="orth">    0.13    0.13</time>
   <time name="total">   13.44   13.46</time>
   <energy>
    <i name="e_fr_energy">    -90.23789112 </i>
    <i name="e_wo_entrp">    -90.23249393 </i>
    <i name="e_0_energy">    -90.23654183 </i>
   </energy>
  </scstep>
  <scstep>
   <time name="diag">    2.60    2.60</time>
   <time name="diis">    8.42    8.44</time>
   <time name="orth">    0.13    0.13</time>
   <time name="total">   12.97   12.98</time>
   <energy>
    <i name="e_fr_energy">    -90.26697899 </i>
    <i name="e_wo_entrp">    -90.24541579 </i>
    <i name="e_0_energy">    -90.26158819 </i>
   </energy>
  </scstep>
  <scstep>
   <time name="diag">    2.60    2.61</time>
   <time name="diis">    8.47    8.48</time>
   <time name="orth">    0.13    0.13</time>
   <time name="total">   13.00   13.03</time>
   <energy>
    <i name="e_fr_energy">    -90.47446913 </i>
    <i name="e_wo_entrp">    -90.46194050 </i>
    <i name="e_0_energy">    -90.47133697 </i>
   </energy>
  </scstep>
  <scstep>
   <time name="diag">    2.60    2.60</time>
   <time name="diis">    9.55    9.56</time>
   <time name="orth">    0.13    0.13</time>
   <time name="total">   14.08   14.10</time>
   <energy>
    <i name="e_fr_energy">    -90.51588373 </i>
    <i name="e_wo_entrp">    -90.50104421 </i>
    <i name="e_0_energy">    -90.51217385 </i>
   </energy>
  </scstep>
  <scstep>
   <time name="diag">    2.60    2.60</time>
   <time name="diis">    8.86    8.87</time>
   <time name="orth">    0.13    0.13</time>
   <time name="total">   13.39   13.41</time>
   <energy>
    <i name="e_fr_energy">    -90.49043658 </i>
    <i name="e_wo_entrp">    -90.47391074 </i>
    <i name="e_0_energy">    -90.48630512 </i>
   </energy>
  </scstep>
  <scstep>
   <time name="diag">    2.61    2.61</time>
   <time name="diis">    8.50    8.51</time>
   <time name="orth">    0.13    0.13</time>
   <time name="total">   13.05   13.07</time>
   <energy>
    <i name="e_fr_energy">    -90.45251490 </i>
    <i name="e_wo_entrp">    -90.44056685 </i>
    <i name="e_0_energy">    -90.44952789 </i>
   </energy>
  </scstep>
  <scstep>
   <time name="diag">    2.60    2.60</time>
   <time name="diis">    8.70    8.72</time>
   <time name="orth">    0.13    0.13</time>
   <time name="total">   13.24   13.26</time>
   <energy>
    <i name="e_fr_energy">    -90.45334905 </i>
    <i name="e_wo_entrp">    -90.44244273 </i>
    <i name="e_0_energy">    -90.45062247 </i>
   </energy>
  </scstep>
  <scstep>
   <time name="diag">    2.60    2.60</time>
   <time name="diis">    8.96    8.97</time>
   <time name="orth">    0.13    0.13</time>
   <time name="total">   13.50   13.52</time>
   <energy>
    <i name="e_fr_energy">    -90.44493713 </i>
    <i name="e_wo_entrp">    -90.42074903 </i>
    <i name="e_0_energy">    -90.43889010 </i>
   </energy>
  </scstep>
  <scstep>
   <time name="diag">    2.58    2.59</time>
   <time name="diis">    9.62    9.64</time>
   <time name="orth">    0.13    0.13</time>
   <time name="total">   14.15   14.17</time>
   <energy>
    <i name="e_fr_energy">    -90.40925419 </i>
    <i name="e_wo_entrp">    -90.37659928 </i>
    <i name="e_0_energy">    -90.40109046 </i>
   </energy>
  </scstep>
  <scstep>
   <time name="diag">    2.61    2.61</time>
   <time name="diis">    8.96    8.97</time>
   <time name="orth">    0.13    0.13</time>
   <time name="total">   13.52   13.54</time>
   <energy>
    <i name="e_fr_energy">    -90.44993783 </i>
    <i name="e_wo_entrp">    -90.43386940 </i>
    <i name="e_0_energy">    -90.44592072 </i>
   </energy>
  </scstep>
  <scstep>
   <time name="diag">    2.60    2.61</time>
   <time name="diis">    9.21    9.23</time>
   <time name="orth">    0.13    0.13</time>
   <time name="total">   13.75   13.77</time>
   <energy>
    <i name="e_fr_energy">    -90.43627795 </i>
    <i name="e_wo_entrp">    -90.42876938 </i>
    <i name="e_0_energy">    -90.43440081 </i>
   </energy>
  </scstep>
  <scstep>
   <time name="diag">    2.60    2.60</time>
   <time name="diis">    9.60    9.62</time>
   <time name="orth">    0.13    0.13</time>
   <time name="total">   14.14   14.16</time>
   <energy>
    <i name="e_fr_energy">    -90.45828075 </i>
    <i name="e_wo_entrp">    -90.45271930 </i>
    <i name="e_0_energy">    -90.45689039 </i>
   </energy>
  </scstep>
  <scstep>
   <time name="diag">    2.60    2.60</time>
   <time name="diis">    8.48    8.49</time>
   <time name="orth">    0.13    0.13</time>
   <time name="total">   13.01   13.03</time>
   <energy>
    <i name="e_fr_energy">    -90.43743586 </i>
    <i name="e_wo_entrp">    -90.43403695 </i>
    <i name="e_0_energy">    -90.43658613 </i>
   </energy>
  </scstep>
  <scstep>
   <time name="diag">    2.59    2.59</time>
   <time name="diis">    9.09    9.10</time>
   <time name="orth">    0.13    0.13</time>
   <time name="total">   13.62   13.63</time>
   <energy>
    <i name="e_fr_energy">    -90.56111523 </i>
    <i name="e_wo_entrp">    -90.55979644 </i>
    <i name="e_0_energy">    -90.56078553 </i>
   </energy>
  </scstep>
  <scstep>
   <time name="diag">    2.61    2.61</time>
   <time name="diis">    9.36    9.38</time>
   <time name="orth">    0.13    0.13</time>
   <time name="total">   13.92   13.94</time>
   <energy>
    <i name="e_fr_energy">    -90.55123577 </i>
    <i name="e_wo_entrp">    -90.55183813 </i>
    <i name="e_0_energy">    -90.55138636 </i>
   </energy>
  </scstep>
  <scstep>
   <time name="diag">    2.60    2.60</time>
   <time name="diis">    9.04    9.05</time>
   <time name="orth">    0.13    0.13</time>
   <time name="total">   12.20   12.22</time>
   <energy>
    <i name="alphaZ">    328.78290224 </i>
    <i name="ewald">  19419.77395264 </i>
    <i name="hartreedc"> -26755.87859985 </i>
    <i name="XCdc">     45.67745912 </i>
    <i name="pawpsdc">   8283.96583769 </i>
    <i name="pawaedc">  -8390.28926937 </i>
    <i name="eentropy">      0.00088699 </i>
    <i name="bandstr">   -154.13706051 </i>
    <i name="atom">   7131.53793727 </i>
    <i name="e_fr_energy">    -90.56595377 </i>
    <i name="e_wo_entrp">    -90.56684076 </i>
    <i name="e_0_energy">    -90.56617551 </i>
   </energy>
  </scstep>
  <structure>
   <crystal>
    <varray name="basis" >
     <v>       3.98651217       0.00000000       0.00000000 </v>
     <v>       0.00000000       3.98651217       0.00000000 </v>
     <v>       0.00000000       0.00000000      19.04722447 </v>
    </varray>
    <i name="volume">    302.70381082 </i>
    <varray name="rec_basis" >
     <v>       0.25084584       0.00000000       0.00000000 </v>
     <v>       0.00000000       0.25084584       0.00000000 </v>
     <v>       0.00000000       0.00000000       0.05250109 </v>
    </varray>
   </crystal>
   <varray name="positions" >
    <v>       0.00000000       0.00000000       0.00000000 </v>
    <v>       0.50000000       0.50000000       0.00000000 </v>
    <v>       0.50000000       0.00000000       0.07399739 </v>
    <v>       0.00000000       0.50000000       0.07399739 </v>
    <v>       0.00000000      -0.00000000       0.14960151 </v>
    <v>       0.50000000       0.50000000       0.14960151 </v>
    <v>       0.50000000      -0.00000000       0.21726300 </v>
    <v>       0.00000000       0.50000000       0.21726300 </v>
    <v>       0.00000000      -0.00000000       0.29748644 </v>
    <v>       0.50000000       0.50000000       0.29748644 </v>
    <v>       0.50000000      -0.00000000       0.36819195 </v>
    <v>       0.00000000       0.50000000       0.36819195 </v>
   </varray>
  </structure>
  <varray name="forces" >
   <v>       0.00000000       0.00000000      -0.35810082 </v>
   <v>       0.00000000       0.00000000      -0.35810082 </v>
   <v>       0.00000000       0.00000000      -0.54945092 </v>
   <v>       0.00000000       0.00000000      -0.54945092 </v>
   <v>       0.00000000       0.00000000       0.75009708 </v>
   <v>       0.00000000       0.00000000       0.75009708 </v>
   <v>       0.00000000       0.00000000       0.56795967 </v>
   <v>       0.00000000       0.00000000       0.56795967 </v>
   <v>       0.00000000       0.00000000       0.01867734 </v>
   <v>       0.00000000       0.00000000       0.01867734 </v>
   <v>       0.00000000       0.00000000      -0.42918234 </v>
   <v>       0.00000000      -0.00000000      -0.42918234 </v>
  </varray>
  <varray name="stress" >
   <v>       5.86538233       0.00000000       0.00000000 </v>
   <v>       0.00000000       5.86538233       0.00000000 </v>
   <v>       0.00000000       0.00000000     -74.28198758 </v>
  </varray>
  <energy>
   <i name="e_fr_energy">    -90.56595377 </i>
   <i name="e_wo_entrp">    -90.56617551 </i>
   <i name="e_0_energy">      0.00088699 </i>
  </energy>
  <time name="totalsc">  817.59  818.65</time>
 </calculation>
11.47   11.48</time>
   <time name="orth">    0.14    0.15</time>
   <time name="total">   17.40   17.42</time>
   <energy>
    <i name="e_fr_energy">    -92.91089663 </i>
    <i name="e_wo_entrp">    -92.90066651 </i>
    <i name="e_0_energy">    -92.90833910 </i>
   </energy>
  </scstep>
  <scstep>
   <time name="diag">    3.58    3.58</time>
   <time name="diis">   12.01   12.02</time>
   <time name="orth">    0.14    0.14</time>
   <time name="total">   17.95   17.97</time>
   <energy>
    <i name="e_fr_energy">    -92.57167518 </i>
    <i name="e_wo_entrp">    -92.56774159 </i>
    <i name="e_0_energy">    -92.57069178 </i>
   </energy>
  </scstep>
  <scstep>
   <time name="diag">    3.61    3.61</time>
   <time name="diis">   11.82   11.83</time>
   <time name="orth">    0.14    0.14</time>
   <time name="total">   17.78   17.80</time>
   <energy>
    <i name="e_fr_energy">    -92.27475191 </i>
    <i name="e_wo_entrp">    -92.27307710 </i>
    <i name="e_0_energy">    -92.27433321 </i>
   </energy>
  </scstep>
  <scstep>
   <time name="diag">    3.61    3.61</time>
   <time name="diis">   11.64   11.64</time>
   <time name="orth">    0.14    0.14</time>
   <time name="total">   17.59   17.61</time>
   <energy>
    <i name="e_fr_energy">    -91.21173796 </i>
    <i name="e_wo_entrp">    -91.21284273 </i>
    <i name="e_0_energy">    -91.21201416 </i>
   </energy>
  </scstep>
  <scstep>
   <time name="diag">    3.59    3.59</time>
   <time name="diis">   11.70   11.72</time>
   <time name="orth">    0.15    0.15</time>
   <time name="total">   17.64   17.65</time>
   <energy>
    <i name="e_fr_energy">    -91.70244034 </i>
    <i name="e_wo_entrp">    -91.70958638 </i>
    <i name="e_0_energy">    -91.70422685 </i>
   </energy>
  </scstep>
  <scstep>
   <time name="diag">    3.60    3.61</time>
   <time name="diis">   11.59   11.60</time>
   <time name="orth">    0.15    0.15</time>
   <time name="total">   17.54   17.56</time>
   <energy>
    <i name="e_fr_energy">    -91.27579812 </i>
    <i name="e_wo_entrp">    -91.27437568 </i>
    <i name="e_0_energy">    -91.27544251 </i>
   </energy>
  </scstep>
  <scstep>
   <time name="diag">    3.59    3.60</time>
   <time name="diis">   11.68   11.69</time>
   <time name="orth">    0.14    0.14</time>
   <time name="total">   17.63   17.64</time>
   <energy>
    <i name="e_fr_energy">    -90.64159927 </i>
    <i name="e_wo_entrp">    -90.62614945 </i>
    <i name="e_0_energy">    -90.63773681 </i>
   </energy>
  </scstep>
  <scstep>
   <time name="diag">    3.59    3.59</time>
   <time name="diis">   12.49   12.50</time>
   <time name="orth">    0.14    0.15</time>
   <time name="total">   18.43   18.44</time>
   <energy>
    <i name="e_fr_energy">    -90.72476095 </i>
    <i name="e_wo_entrp">    -90.71192356 </i>
    <i name="e_0_energy">    -90.72155161 </i>
   </energy>
  </scstep>
  <scstep>
   <time name="diag">    3.59    3.60</time>
   <time name="diis">   12.08   12.09</time>
   <time name="orth">    0.15    0.15</time>
   <time name="total">   18.04   18.05</time>
   <energy>
    <i name="e_fr_energy">    -90.63847827 </i>
    <i name="e_wo_entrp">    -90.62870155 </i>
    <i name="e_0_energy">    -90.63603409 </i>
   </energy>
  </scstep>
  <scstep>
   <time name="diag">    3.61    3.61</time>
   <time name="diis">   11.44   11.45</time>
   <time name="orth">    0.14    0.14</time>
   <time name="total">   17.40   17.42</time>
   <energy>
    <i name="e_fr_energy">    -90.54001689 </i>
    <i name="e_wo_entrp">    -90.53176145 </i>
    <i name="e_0_energy">    -90.53795303 </i>
   </energy>
  </scstep>
  <scstep>
   <time name="diag">    3.60    3.60</time>
   <time name="diis">   12.09   12.10</time>
   <time name="orth">    0.14    0.14</time>
   <time name="total">   18.03   18.05</time>
   <energy>
    <i name="e_fr_energy">    -90.62757897 </i>
    <i name="e_wo_entrp">    -90.62905591 </i>
    <i name="e_0_energy">    -90.62794821 </i>
   </energy>
  </scstep>
  <scstep>
   <time name="diag">    3.60    3.61</time>
   <time name="diis">   11.41   11.42</time>
   <time name="orth">    0.14    0.15</time>
   <time name="total">   17.38   17.40</time>
   <energy>
    <i name="e_fr_energy">    -91.31104088 </i>
    <i name="e_wo_entrp">    -91.31049632 </i>
    <i name="e_0_energy">    -91.31090474 </i>
   </energy>
  </scstep>
  <scstep>
   <time name="diag">    3.60    3.60</time>
   <time name="diis">   11.56   11.57</time>
   <time name="orth">    0.14    0.15</time>
   <time name="total">   17.54   17.55</time>
   <energy>
    <i name="e_fr_energy">    -91.98171135 </i>
    <i name="e_wo_entrp">    -91.98269183 </i>
    <i name="e_0_energy">    -91.98195647 </i>
   </energy>
  </scstep>
  <scstep>
   <time name="diag">    3.60    3.60</time>
   <time name="diis">   11.38   11.40</time>
   <time name="orth">    0.14    0.14</time>
   <time name="total">   17.36   17.37</time>
   <energy>
    <i name="e_fr_energy">    -93.17274108 </i>
    <i name="e_wo_entrp">    -93.17620680 </i>
    <i name="e_0_energy">    -93.17360751 </i>
   </energy>
  </scstep>
  <scstep>
   <time name="diag">    3.60    3.60</time>
   <time name="diis">   11.50   11.52</time>
   <time name="orth">    0.14    0.14</time>
   <time name="total">   17.46   17.47</time>
   <energy>
    <i name="e_fr_energy">    -94.11413533 </i>
    <i name="e_wo_entrp">    -94.12150181 </i>
    <i name="e_0_energy">    -94.11597695 </i>
   </energy>
  </scstep>
  <scstep>
   <time name="diag">    3.61    3.62</time>
   <time name="diis">   11.92   11.93</time>
   <time name="orth">    0.14    0.14</time>
   <time name="total">   17.89   17.91</time>
   <energy>
    <i name="e_fr_energy">    -94.59146607 </i>
    <i name="e_wo_entrp">    -94.59806464 </i>
    <i name="e_0_energy">    -94.59311571 </i>
   </energy>
  </scstep>
  <scstep>
   <time name="diag">    3.61    3.61</time>
   <time name="diis">   12.93   12.94</time>
   <time name="orth">    0.14    0.14</time>
   <time name="total">   18.90   18.91</time>
   <energy>
    <i name="e_fr_energy">    -94.68816215 </i>
    <i name="e_wo_entrp">    -94.68912455 </i>
    <i name="e_0_energy">    -94.68840275 </i>
   </energy>
  </scstep>
  <scstep>
   <time name="diag">    3.58    3.58</time>
   <time name="diis">   11.37   11.38</time>
   <time name="orth">    0.14    0.15</time>
   <time name="total">   17.32   17.34</time>
   <energy>
    <i name="e_fr_energy">    -94.88520983 </i>
    <i name="e_wo_entrp">    -94.88454053 </i>
    <i name="e_0_energy">    -94.88504251 </i>
   </energy>
  </scstep>
  <scstep>
   <time name="diag">    3.60    3.61</time>
   <time name="diis">   11.51   11.52</time>
   <time name="orth">    0.14    0.15</time>
   <time name="total">   17.49   17.50</time>
   <energy>
    <i name="e_fr_energy">    -95.28583165 </i>
    <i name="e_wo_entrp">    -95.28949016 </i>
    <i name="e_0_energy">    -95.28674628 </i>
   </energy>
  </scstep>
  <scstep>
   <time name="diag">    3.58    3.58</time>
   <time name="diis">   12.17   12.17</time>
   <time name="orth">    0.14    0.14</time>
   <time name="total">   18.11   18.13</time>
   <energy>
    <i name="e_fr_energy">    -95.46199679 </i>
    <i name="e_wo_entrp">    -95.46703954 </i>
    <i name="e_0_energy">    -95.46325748 </i>
   </energy>
  </scstep>
  <scstep>
   <time name="diag">    3.61    3.62</time>
   <time name="diis">   11.64   11.64</time>
   <time name="orth">    0.14    0.14</time>
   <time name="total">   17.62   17.64</time>
   <energy>
    <i name="e_fr_energy">    -95.59456615 </i>
[...]
       <r>    15.4288     0.0000    63.0000 </r>
       <r>    15.5350     0.0000    63.0000 </r>
       <r>    15.6412     0.0000    63.0000 </r>
       <r>    15.7475     0.0000    63.0000 </r>
       <r>    15.8537     0.0000    63.0000 </r>
       <r>    15.9599     0.0000    63.0000 </r>
       <r>    16.0662     0.0000    63.0000 </r>
       <r>    16.1724     0.0000    63.0000 </r>
       <r>    16.2786     0.0000    63.0000 </r>
       <r>    16.3848     0.0000    63.0000 </r>
       <r>    16.4911     0.0000    63.0000 </r>
       <r>    16.5973     0.0000    63.0000 </r>
       <r>    16.7035     0.0000    63.0000 </r>
       <r>    16.8098     0.0000    63.0000 </r>
       <r>    16.9160     0.0000    63.0000 </r>
       <r>    17.0222     0.0000    63.0000 </r>
       <r>    17.1285     0.0000    63.0000 </r>
       <r>    17.2347     0.0000    63.0000 </r>
       <r>    17.3409     0.0000    63.0000 </r>
       <r>    17.4472     0.0000    63.0000 </r>
       <r>    17.5534     0.0000    63.0000 </r>
       <r>    17.6596     0.0000    63.0000 </r>
       <r>    17.7658     0.0000    63.0000 </r>
       <r>    17.8721     0.0000    63.0000 </r>
       <r>    17.9783     0.0000    63.0000 </r>
       <r>    18.0845     0.0000    63.0000 </r>
       <r>    18.1908     0.0000    63.0000 </r>
       <r>    18.2970     0.0000    63.0000 </r>
       <r>    18.4032     0.0000    63.0000 </r>
       <r>    18.5095     0.0000    63.0000 </r>
       <r>    18.6157     0.0000    63.0000 </r>
       <r>    18.7219     0.0000    63.0000 </r>
       <r>    18.8282     0.0000    63.0000 </r>
       <r>    18.9344     0.0000    63.0000 </r>
       <r>    19.0406     0.0000    63.0000 </r>
       <r>    19.1468     0.0000    63.0000 </r>
       <r>    19.2531     0.0000    63.0000 </r>
       <r>    19.3593     0.0000    63.0000 </r>
       <r>    19.4655     0.0000    63.0000 </r>
       <r>    19.5718     0.0000    63.0000 </r>
       <r>    19.6780     0.0000    63.0000 </r>
       <r>    19.7842     0.0000    63.0000 </r>
       <r>    19.8905     0.0000    63.0000 </r>
       <r>    19.9967     0.0000    63.0000 </r>
       <r>    20.1029     0.0000    63.0000 </r>
       <r>    20.2091     0.0000    63.0000 </r>
       <r>    20.3154     0.0000    63.0000 </r>
       <r>    20.4216     0.0000    63.0000 </r>
       <r>    20.5278     0.0000    63.0000 </r>
       <r>    20.6341     0.0000    63.0000 </r>
       <r>    20.7403     0.0000    63.0000 </r>
       <r>    20.8465     0.0000    63.0000 </r>
       <r>    20.9528     0.0000    63.0000 </r>
       <r>    21.0590     0.0000    63.0000 </r>
       <r>    21.1652     0.0000    63.0000 </r>
       <r>    21.2715     0.0000    63.0000 </r>
       <r>    21.3777     0.0000    63.0000 </r>
       <r>    21.4839     0.0000    63.0000 </r>
       <r>    21.5901     0.0000    63.0000 </r>
       <r>    21.6964     0.0000    63.0000 </r>
       <r>    21.8026     0.0000    63.0000 </r>
       <r>    21.9088     0.0000    63.0000 </r>
       <r>    22.0151     0.0000    63.0000 </r>
       <r>    22.1213     0.0000    63.0000 </r>
      </set>
      <set comment="spin 2">
       <r>    -9.7478     0.0000     0.0000 </r>
       <r>    -9.6416     0.0000     0.0000 </r>
       <r>    -9.5354     0.0000     0.0000 </r>
       <r>    -9.4292     0.0000     0.0000 </r>
       <r>    -9.3229     0.0000     0.0000 </r>
       <r>    -9.2167     0.0000     0.0000 </r>
       <r>    -9.1105     0.0000     0.0000 </r>
       <r>    -9.0042     0.0000     0.0000 </r>
       <r>    -8.8980     0.0000     0.0000 </r>
       <r>    -8.7918     0.0000     0.0000 </r>
       <r>    -8.6855     0.0000     0.0000 </r>
       <r>    -8.5793     0.0000     0.0000 </r>
       <r>    -8.4731     0.0000     0.0000 </r>
       <r>    -8.3669     0.0000     0.0000 </r>
       <r>    -8.2606     0.0000     0.0000 </r>
       <r>    -8.1544     0.0000     0.0000 </r>
       <r>    -8.0482     0.0000     0.0000 </r>
       <r>    -7.9419     0.0000     0.0000 </r>
       <r>    -7.8357     0.0000     0.0000 </r>
       <r>    -7.7295     0.0000     0.0000 </r>
       <r>    -7.6232     0.0000     0.0000 </r>
       <r>    -7.5170     0.0000     0.0000 </r>
       <r>    -7.4108     0.0000     0.0000 </r>
       <r>    -7.3045     0.0008     0.0001 </r>
       <r>    -7.1983     0.0001     0.0001 </r>
       <r>    -7.0921    -0.0118    -0.0012 </r>
       <r>    -6.9859     0.9248     0.0971 </r>
       <r>    -6.8796     0.1465     0.1127 </r>
       <r>    -6.7734    -0.0165     0.1109 </r>
       <r>    -6.6672     0.0020     0.1111 </r>
       <r>    -6.5609     0.0010     0.1112 </r>
       <r>    -6.4547    -0.0022     0.1110 </r>
       <r>    -6.3485     0.0112     0.1122 </r>
       <r>    -6.2422     0.9435     0.2124 </r>
       <r>    -6.1360     0.1106     0.2241 </r>
       <r>    -6.0298    -0.0987     0.2137 </r>
       <r>    -5.9236     0.8257     0.3014 </r>
       <r>    -5.8173     1.4540     0.4558 </r>
       <r>    -5.7111    -0.1174     0.4434 </r>
       <r>    -5.6049     0.0098     0.4444 </r>
       <r>    -5.4986     0.0025     0.4447 </r>
       <r>    -5.3924     0.0047     0.4451 </r>
       <r>    -5.2862    -0.0774     0.4369 </r>
       <r>    -5.1799     2.7079     0.7246 </r>
       <r>    -5.0737     0.5635     0.7845 </r>
       <r>    -4.9675    -0.1496     0.7686 </r>
       <r>    -4.8612     1.7201     0.9513 </r>
       <r>    -4.7550     0.5088     1.0053 </r>
       <r>    -4.6488    -0.0559     0.9994 </r>
       <r>    -4.5426     0.0074     1.0002 </r>
       <r>    -4.4363     0.0087     1.0011 </r>
       <r>    -4.3301    -0.1193     0.9884 </r>
       <r>    -4.2239     2.8755     1.2939 </r>
       <r>    -4.1176     1.3547     1.4378 </r>
       <r>    -4.0114     3.2679     1.7850 </r>
       <r>    -3.9052     2.1437     2.0127 </r>
       <r>    -3.7989    -0.1139     2.0006 </r>
       <r>    -3.6927    -0.1922     1.9802 </r>
       <r>    -3.5865     2.0397     2.1969 </r>
       <r>    -3.4803     2.3870     2.4504 </r>
       <r>    -3.3740     2.0873     2.6722 </r>
       <r>    -3.2678     2.2088     2.9068 </r>
       <r>    -3.1616    -0.2727     2.8778 </r>
       <r>    -3.0553     1.1716     3.0023 </r>
       <r>    -2.9491     4.2552     3.4543 </r>
       <r>    -2.8429     3.3406     3.8092 </r>
       <r>    -2.7366     0.8073     3.8950 </r>
       <r>    -2.6304     0.8153     3.9816 </r>
       <r>    -2.5242     0.2946     4.0129 </r>
       <r>    -2.4179     0.9493     4.1137 </r>
       <r>    -2.3117    -0.2774     4.0843 </r>
       <r>    -2.2055     7.0120     4.8291 </r>
       <r>    -2.0993    11.2877     6.0282 </r>
       <r>    -1.9930     1.4806     6.1855 </r>
       <r>    -1.8868     7.5114     6.9835 </r>
       <r>    -1.7806     3.1118     7.3140 </r>
       <r>    -1.6743     6.5658     8.0115 </r>
       <r>    -1.5681     4.4833     8.4878 </r>
       <r>    -1.4619     4.8179     8.9996 </r>
       <r>    -1.3556     3.5400     9.3757 </r>
       <r>    -1.2494    10.1080    10.4494 </r>
       <r>    -1.1432     7.7167    11.2692 </r>
       <r>    -1.0370     7.4558    12.0612 </r>
       <r>    -0.9307     3.7539    12.4600 </r>
       <r>    -0.8245     5.5931    13.0542 </r>
       <r>    -0.7183     3.7324    13.4506 </r>
       <r>    -0.6120    12.4395    14.7721 </r>
       <r>    -0.5058    16.8091    16.5577 </r>
       <r>    -0.3996    11.9268    17.8247 </r>
       <r>    -0.2933    14.8153    19.3986 </r>
       <r>    -0.1871     8.3605    20.2867 </r>
       <r>    -0.0809     9.5083    21.2968 </r>
       <r>     0.0254    14.6102    22.8488 </r>
       <r>     0.1316    16.8692    24.6408 </r>
       <r>     0.2378     9.4179    25.6413 </r>
       <r>     0.3440    14.0277    27.1315 </r>
       <r>     0.4503    13.5998    28.5762 </r>
       <r>     0.5565     5.6369    29.1750 </r>
       <r>     0.6627     9.5389    30.1883 </r>
       <r>     0.7690     8.8706    31.1307 </r>
       <r>     0.8752    13.6753    32.5834 </r>
       <r>     0.9814    10.1357    33.6601 </r>
       <r>     1.0877     5.0229    34.1937 </r>
       <r>     1.1939     0.1682    34.2116 </r>
       <r>     1.3001     6.6093    34.9137 </r>
       <r>     1.4064     6.6526    35.6204 </r>
       <r>     1.5126     5.1845    36.1711 </r>
       <r>     1.6188     6.5096    36.8627 </r>
       <r>     1.7250     7.2362    37.6314 </r>
       <r>     1.8313     5.2399    38.1880 </r>
       <r>     1.9375     4.8513    38.7034 </r>
       <r>     2.0437    18.8837    40.7094 </r>
       <r>     2.1500     5.3941    41.2824 </r>
       <r>     2.2562     9.5890    42.3010 </r>
       <r>     2.3624     7.0474    43.0497 </r>
       <r>     2.4687    15.8348    44.7318 </r>
       <r>     2.5749    21.8062    47.0483 </r>
       <r>     2.6811    18.4445    49.0077 </r>
       <r>     2.7873    19.5771    51.0873 </r>
       <r>     2.8936    23.1359    53.5451 </r>
       <r>     2.9998    26.6683    56.3781 </r>
       <r>     3.1060    23.2233    58.8451 </r>
       <r>     3.2123    18.8437    60.8469 </r>
       <r>     3.3185     8.9090    61.7933 </r>
       <r>     3.4247     1.5306    61.9559 </r>
       <r>     3.5310     5.5256    62.5428 </r>
       <r>     3.6372     4.6189    63.0335 </r>
       <r>     3.7434    -0.3481    62.9965 </r>
       <r>     3.8497     0.0309    62.9998 </r>
       <r>     3.9559     0.0017    63.0000 </r>
       <r>     4.0621     0.0000    63.0000 </r>
       <r>     4.1683     0.0000    63.0000 </r>
       <r>     4.2746     0.0000    63.0000 </r>
       <r>     4.3808     0.0000    63.0000 </r>
       <r>     4.4870     0.0000    63.0000 </r>
       <r>     4.5933     0.0000    63.0000 </r>
       <r>     4.6995     0.0000    63.0000 </r>
       <r>     4.8057     0.0000    63.0000 </r>
       <r>     4.9120     0.0000    63.0000 </r>
       <r>     5.0182     0.0000    63.0000 </r>
       <r>     5.1244     0.0000    63.0000 </r>
       <r>     5.2306     0.0000    63.0000 </r>
       <r>     5.3369     0.0000    63.0000 </r>
       <r>     5.4431     0.0000    63.0000 </r>
       <r>     5.5493     0.0000    63.0000 </r>
       <r>     5.6556     0.0000    63.0000 </r>
       <r>     5.7618     0.0000    63.0000 </r>
       <r>     5.8680     0.0000    63.0000 </r>
       <r>     5.9743     0.0000    63.0000 </r>
       <r>     6.0805     0.0000    63.0000 </r>
       <r>     6.1867     0.0000    63.0000 </r>
       <r>     6.2930     0.0000    63.0000 </r>
       <r>     6.3992     0.0000    63.0000 </r>
       <r>     6.5054     0.0000    63.0000 </r>
       <r>     6.6116     0.0000    63.0000 </r>
       <r>     6.7179     0.0000    63.0000 </r>
       <r>     6.8241     0.0000    63.0000 </r>
       <r>     6.9303     0.0000    63.0000 </r>
       <r>     7.0366     0.0000    63.0000 </r>
       <r>     7.1428     0.0000    63.0000 </r>
       <r>     7.2490     0.0000    63.0000 </r>
       <r>     7.3553     0.0000    63.0000 </r>
       <r>     7.4615     0.0000    63.0000 </r>
       <r>     7.5677     0.0000    63.0000 </r>
       <r>     7.6739     0.0000    63.0000 </r>
       <r>     7.7802     0.0000    63.0000 </r>
       <r>     7.8864     0.0000    63.0000 </r>
       <r>     7.9926     0.0000    63.0000 </r>
       <r>     8.0989     0.0000    63.0000 </r>
       <r>     8.2051     0.0000    63.0000 </r>
       <r>     8.3113     0.0000    63.0000 </r>
       <r>     8.4176     0.0000    63.0000 </r>
       <r>     8.5238     0.0000    63.0000 </r>
       <r>     8.6300     0.0000    63.0000 </r>
       <r>     8.7363     0.0000    63.0000 </r>
       <r>     8.8425     0.0000    63.0000 </r>
       <r>     8.9487     0.0000    63.0000 </r>
       <r>     9.0549     0.0000    63.0000 </r>
       <r>     9.1612     0.0000    63.0000 </r>
       <r>     9.2674     0.0000    63.0000 </r>
       <r>     9.3736     0.0000    63.0000 </r>
       <r>     9.4799     0.0000    63.0000 </r>
       <r>     9.5861     0.0000    63.0000 </r>
       <r>     9.6923     0.0000    63.0000 </r>
       <r>     9.7986     0.0000    63.0000 </r>
       <r>     9.9048     0.0000    63.0000 </r>
       <r>    10.0110     0.0000    63.0000 </r>
       <r>    10.1173     0.0000    63.0000 </r>
       <r>    10.2235     0.0000    63.0000 </r>
       <r>    10.3297     0.0000    63.0000 </r>
       <r>    10.4359     0.0000    63.0000 </r>
       <r>    10.5422     0.0000    63.0000 </r>
       <r>    10.6484     0.0000    63.0000 </r>
       <r>    10.7546     0.0000    63.0000 </r>
       <r>    10.8609     0.0000    63.0000 </r>
       <r>    10.9671     0.0000    63.0000 </r>
       <r>    11.0733     0.0000    63.0000 </r>
       <r>    11.1796     0.0000    63.0000 </r>
       <r>    11.2858     0.0000    63.0000 </r>
       <r>    11.3920     0.0000    63.0000 </r>
       <r>    11.4982     0.0000    63.0000 </r>
       <r>    11.6045     0.0000    63.0000 </r>
       <r>    11.7107     0.0000    63.0000 </r>
       <r>    11.8169     0.0000    63.0000 </r>
       <r>    11.9232     0.0000    63.0000 </r>
       <r>    12.0294     0.0000    63.0000 </r>
       <r>    12.1356     0.0000    63.0000 </r>
       <r>    12.2419     0.0000    63.0000 </r>
       <r>    12.3481     0.0000    63.0000 </r>
       <r>    12.4543     0.0000    63.0000 </r>
       <r>    12.5606     0.0000    63.0000 </r>
       <r>    12.6668     0.0000    63.0000 </r>
       <r>    12.7730     0.0000    63.0000 </r>
       <r>    12.8792     0.0000    63.0000 </r>
       <r>    12.9855     0.0000    63.0000 </r>
       <r>    13.0917     0.0000    63.0000 </r>
       <r>    13.1979     0.0000    63.0000 </r>
       <r>    13.3042     0.0000    63.0000 </r>
       <r>    13.4104     0.0000    63.0000 </r>
       <r>    13.5166     0.0000    63.0000 </r>
       <r>    13.6229     0.0000    63.0000 </r>
       <r>    13.7291     0.0000    63.0000 </r>
       <r>    13.8353     0.0000    63.0000 </r>
       <r>    13.9415     0.0000    63.0000 </r>
       <r>    14.0478     0.0000    63.0000 </r>
       <r>    14.1540     0.0000    63.0000 </r>
       <r>    14.2602     0.0000    63.0000 </r>
       <r>    14.3665     0.0000    63.0000 </r>
       <r>    14.4727     0.0000    63.0000 </r>
       <r>    14.5789     0.0000    63.0000 </r>
       <r>    14.6852     0.0000    63.0000 </r>
       <r>    14.7914     0.0000    63.0000 </r>
       <r>    14.8976     0.0000    63.0000 </r>
       <r>    15.0039     0.0000    63.0000 </r>
       <r>    15.1101     0.0000    63.0000 </r>
       <r>    15.2163     0.0000    63.0000 </r>
       <r>    15.3225     0.0000    63.0000 </r>
       <r>    15.4288     0.0000    63.0000 </r>
       <r>    15.5350     0.0000    63.0000 </r>
       <r>    15.6412     0.0000    63.0000 </r>
       <r>    15.7475     0.0000    63.0000 </r>
       <r>    15.8537     0.0000    63.0000 </r>
       <r>    15.9599     0.0000    63.0000 </r>
       <r>    16.0662     0.0000    63.0000 </r>
       <r>    16.1724     0.0000    63.0000 </r>
       <r>    16.2786     0.0000    63.0000 </r>
       <r>    16.3848     0.0000    63.0000 </r>
       <r>    16.4911     0.0000    63.0000 </r>
       <r>    16.5973     0.0000    63.0000 </r>
       <r>    16.7035     0.0000    63.0000 </r>
       <r>    16.8098     0.0000    63.0000 </r>
       <r>    16.9160     0.0000    63.0000 </r>
       <r>    17.0222     0.0000    63.0000 </r>
       <r>    17.1285     0.0000    63.0000 </r>
       <r>    17.2347     0.0000    63.0000 </r>
       <r>    17.3409     0.0000    63.0000 </r>
       <r>    17.4472     0.0000    63.0000 </r>
       <r>    17.5534     0.0000    63.0000 </r>
       <r>    17.6596     0.0000    63.0000 </r>
       <r>    17.7658     0.0000    63.0000 </r>
       <r>    17.8721     0.0000    63.0000 </r>
       <r>    17.9783     0.0000    63.0000 </r>
       <r>    18.0845     0.0000    63.0000 </r>
       <r>    18.1908     0.0000    63.0000 </r>
       <r>    18.2970     0.0000    63.0000 </r>
       <r>    18.4032     0.0000    63.0000 </r>
       <r>    18.5095     0.0000    63.0000 </r>
       <r>    18.6157     0.0000    63.0000 </r>
       <r>    18.7219     0.0000    63.0000 </r>
       <r>    18.8282     0.0000    63.0000 </r>
       <r>    18.9344     0.0000    63.0000 </r>
       <r>    19.0406     0.0000    63.0000 </r>
       <r>    19.1468     0.0000    63.0000 </r>
       <r>    19.2531     0.0000    63.0000 </r>
       <r>    19.3593     0.0000    63.0000 </r>
       <r>    19.4655     0.0000    63.0000 </r>
       <r>    19.5718     0.0000    63.0000 </r>
       <r>    19.6780     0.0000    63.0000 </r>
       <r>    19.7842     0.0000    63.0000 </r>
       <r>    19.8905     0.0000    63.0000 </r>
       <r>    19.9967     0.0000    63.0000 </r>
       <r>    20.1029     0.0000    63.0000 </r>
       <r>    20.2091     0.0000    63.0000 </r>
       <r>    20.3154     0.0000    63.0000 </r>
       <r>    20.4216     0.0000    63.0000 </r>
       <r>    20.5278     0.0000    63.0000 </r>
       <r>    20.6341     0.0000    63.0000 </r>
       <r>    20.7403     0.0000    63.0000 </r>
       <r>    20.8465     0.0000    63.0000 </r>
       <r>    20.9528     0.0000    63.0000 </r>
       <r>    21.0590     0.0000    63.0000 </r>
       <r>    21.1652     0.0000    63.0000 </r>
       <r>    21.2715     0.0000    63.0000 </r>
       <r>    21.3777     0.0000    63.0000 </r>
       <r>    21.4839     0.0000    63.0000 </r>
       <r>    21.5901     0.0000    63.0000 </r>
       <r>    21.6964     0.0000    63.0000 </r>
       <r>    21.8026     0.0000    63.0000 </r>
       <r>    21.9088     0.0000    63.0000 </r>
       <r>    22.0151     0.0000    63.0000 </r>
       <r>    22.1213     0.0000    63.0000 </r>
      </set>
     </set>
    </array>
   </total>
  </dos>
 </calculation>
 <structure name="finalpos" >
  <crystal>
   <varray name="basis" >
    <v>       3.98651217       0.00000000       0.00000000 </v>
    <v>       0.00000000       2.81888979       0.00000000 </v>
    <v>       0.00000000       0.00000000      21.96628042 </v>
   </varray>
   <i name="volume">    246.84692091 </i>
   <varray name="rec_basis" >
    <v>       0.25084584       0.00000000       0.00000000 </v>
    <v>       0.00000000       0.35474959       0.00000000 </v>
    <v>       0.00000000       0.00000000       0.04552432 </v>
   </varray>
  </crystal>
  <varray name="positions" >
   <v>       0.00000000       0.00000000       0.00000000 </v>
   <v>       0.50000000       0.50000000       0.00000000 </v>
   <v>       0.50000000       0.00000000       0.09074163 </v>
   <v>       0.00000000       0.50000000       0.09074163 </v>
   <v>       0.00000000       0.00000000       0.18159130 </v>
   <v>       0.50000000       0.50000000       0.18159130 </v>
   <v>       0.50000000       0.00000000       0.27087013 </v>
   <v>       0.00000000       0.50000000       0.27087013 </v>
   <v>       0.00000000       0.00000000       0.36148043 </v>
   <v>       0.50000000       0.50000000       0.36148043 </v>
   <v>       0.50000000       0.00000000       0.45153492 </v>
   <v>       0.00000000       0.50000000       0.45153492 </v>
  </varray>
  <varray name="selective"  type="logical" >
   <v type="logical" >  F  F  F </v>
   <v type="logical" >  F  F  F </v>
   <v type="logical" >  F  F  F </v>
   <v type="logical" >  F  F  F </v>
   <v type="logical" >  T  T  T </v>
   <v type="logical" >  T  T  T </v>
   <v type="logical" >  T  T  T </v>
   <v type="logical" >  T  T  T </v>
   <v type="logical" >  T  T  T </v>
   <v type="logical" >  T  T  T </v>
   <v type="logical" >  T  T  T </v>
   <v type="logical" >  T  T  T </v>
  </varray>
  <nose>
   <v>      -3.00000000       0.00000000       0.00010000       0.00010000 </v>
  </nose>
 </structure>
</modeling>
