  14  14   0   0
  0.1470686E+02  0.1309307E-08  0.3872730E-09  0.4060946E-09  0.5000000E-15
  1.000000000000000E-004
  CAR 
 Crystal                                 
     38.34035690    -25.11634631  301      0.07329304      1.00000000
    -25.116  0.1891E+00  0.1891E+00  0.4000E-01  0.4000E-01
    -24.905  0.0000E+00  0.0000E+00  0.4000E-01  0.4000E-01
    -24.693  0.0000E+00  0.0000E+00  0.4000E-01  0.4000E-01
    -24.482  0.0000E+00  0.0000E+00  0.4000E-01  0.4000E-01
    -24.270  0.0000E+00  0.0000E+00  0.4000E-01  0.4000E-01
    -24.059  0.0000E+00  0.0000E+00  0.4000E-01  0.4000E-01
    -23.847  0.0000E+00  0.0000E+00  0.4000E-01  0.4000E-01
    -23.636  0.0000E+00  0.0000E+00  0.4000E-01  0.4000E-01
    -23.424  0.0000E+00  0.0000E+00  0.4000E-01  0.4000E-01
    -23.213  0.0000E+00  0.0000E+00  0.4000E-01  0.4000E-01
    -23.001  0.0000E+00  0.0000E+00  0.4000E-01  0.4000E-01
    -22.790  0.0000E+00  0.0000E+00  0.4000E-01  0.4000E-01
    -22.578  0.0000E+00  0.0000E+00  0.4000E-01  0.4000E-01
    -22.367  0.0000E+00  0.0000E+00  0.4000E-01  0.4000E-01
    -22.155  0.0000E+00  0.0000E+00  0.4000E-01  0.4000E-01
    -21.944  0.0000E+00  0.0000E+00  0.4000E-01  0.4000E-01
    -21.732  0.0000E+00  0.0000E+00  0.4000E-01  0.4000E-01
    -21.520  0.0000E+00  0.0000E+00  0.4000E-01  0.4000E-01
    -21.309  0.0000E+00  0.0000E+00  0.4000E-01  0.4000E-01
    -21.097  0.0000E+00  0.0000E+00  0.4000E-01  0.4000E-01
    -20.886  0.0000E+00  0.0000E+00  0.4000E-01  0.4000E-01
    -20.674  0.0000E+00  0.0000E+00  0.4000E-01  0.4000E-01
    -20.463  0.0000E+00  0.0000E+00  0.4000E-01  0.4000E-01
    -20.251  0.0000E+00  0.0000E+00  0.4000E-01  0.4000E-01
    -20.040  0.0000E+00  0.0000E+00  0.4000E-01  0.4000E-01
    -19.828  0.0000E+00  0.0000E+00  0.4000E-01  0.4000E-01
    -19.617  0.0000E+00  0.0000E+00  0.4000E-01  0.4000E-01
    -19.405  0.0000E+00  0.0000E+00  0.4000E-01  0.4000E-01
    -19.194  0.0000E+00  0.0000E+00  0.4000E-01  0.4000E-01
    -18.982  0.0000E+00  0.0000E+00  0.4000E-01  0.4000E-01
    -18.771  0.0000E+00  0.0000E+00  0.4000E-01  0.4000E-01
    -18.559  0.0000E+00  0.0000E+00  0.4000E-01  0.4000E-01
    -18.348  0.4129E-31  0.4129E-31  0.4000E-01  0.4000E-01
    -18.136  0.3023E-18  0.3023E-18  0.4000E-01  0.4000E-01
    -17.925  0.2115E-09  0.2115E-09  0.4000E-01  0.4000E-01
    -17.713  0.6944E-05  0.6944E-05  0.4000E-01  0.4000E-01
    -17.502  0.4573E-03  0.4573E-03  0.4010E-01  0.4010E-01
    -17.290  0.5872E-02  0.5872E-02  0.4134E-01  0.4134E-01
    -17.078  0.1077E-01  0.1077E-01  0.4362E-01  0.4362E-01
    -16.867  0.7222E-02  0.7222E-02  0.4515E-01  0.4515E-01
    -16.655  0.2261E-01  0.2261E-01  0.4993E-01  0.4993E-01
    -16.444  0.9575E-02  0.9575E-02  0.5195E-01  0.5195E-01
    -16.232  0.2809E-01  0.2809E-01  0.5790E-01  0.5790E-01
    -16.021  0.2224E-01  0.2224E-01  0.6260E-01  0.6260E-01
    -15.809  0.2634E-01  0.2634E-01  0.6817E-01  0.6817E-01
    -15.598 -0.8454E-03 -0.8454E-03  0.6799E-01  0.6799E-01
    -15.386  0.1383E-01  0.1383E-01  0.7092E-01  0.7092E-01
    -15.175  0.1135E-01  0.1135E-01  0.7332E-01  0.7332E-01
    -14.963  0.6660E-04  0.6660E-04  0.7333E-01  0.7333E-01
    -14.752  0.1605E-07  0.1605E-07  0.7333E-01  0.7333E-01
    -14.540  0.0000E+00  0.0000E+00  0.7333E-01  0.7333E-01
    -14.329  0.0000E+00  0.0000E+00  0.7333E-01  0.7333E-01
    -14.117  0.0000E+00  0.0000E+00  0.7333E-01  0.7333E-01
    -13.906  0.0000E+00  0.0000E+00  0.7333E-01  0.7333E-01
    -13.694  0.0000E+00  0.0000E+00  0.7333E-01  0.7333E-01
    -13.483  0.0000E+00  0.0000E+00  0.7333E-01  0.7333E-01
    -13.271  0.0000E+00  0.0000E+00  0.7333E-01  0.7333E-01
    -13.060  0.0000E+00  0.0000E+00  0.7333E-01  0.7333E-01
    -12.848  0.0000E+00  0.0000E+00  0.7333E-01  0.7333E-01
    -12.637  0.0000E+00  0.0000E+00  0.7333E-01  0.7333E-01
    -12.425  0.0000E+00  0.0000E+00  0.7333E-01  0.7333E-01
    -12.213  0.0000E+00  0.0000E+00  0.7333E-01  0.7333E-01
    -12.002  0.0000E+00  0.0000E+00  0.7333E-01  0.7333E-01
    -11.790  0.0000E+00  0.0000E+00  0.7333E-01  0.7333E-01
    -11.579  0.0000E+00  0.0000E+00  0.7333E-01  0.7333E-01
    -11.367  0.0000E+00  0.0000E+00  0.7333E-01  0.7333E-01
    -11.156  0.0000E+00  0.0000E+00  0.7333E-01  0.7333E-01
    -10.944  0.0000E+00  0.0000E+00  0.7333E-01  0.7333E-01
    -10.733  0.0000E+00  0.0000E+00  0.7333E-01  0.7333E-01
    -10.521  0.0000E+00  0.0000E+00  0.7333E-01  0.7333E-01
    -10.310  0.0000E+00  0.0000E+00  0.7333E-01  0.7333E-01
    -10.098  0.0000E+00  0.0000E+00  0.7333E-01  0.7333E-01
     -9.887  0.0000E+00  0.0000E+00  0.7333E-01  0.7333E-01
     -9.675  0.0000E+00  0.0000E+00  0.7333E-01  0.7333E-01
     -9.464  0.0000E+00  0.0000E+00  0.7333E-01  0.7333E-01
     -9.252  0.0000E+00  0.0000E+00  0.7333E-01  0.7333E-01
     -9.041  0.0000E+00  0.0000E+00  0.7333E-01  0.7333E-01
     -8.829  0.0000E+00  0.0000E+00  0.7333E-01  0.7333E-01
     -8.618  0.0000E+00  0.0000E+00  0.7333E-01  0.7333E-01
     -8.406  0.0000E+00  0.0000E+00  0.7333E-01  0.7333E-01
     -8.195  0.0000E+00  0.0000E+00  0.7333E-01  0.7333E-01
     -7.983  0.0000E+00  0.0000E+00  0.7333E-01  0.7333E-01
     -7.772  0.0000E+00  0.0000E+00  0.7333E-01  0.7333E-01
     -7.560  0.0000E+00  0.0000E+00  0.7333E-01  0.7333E-01
     -7.348  0.0000E+00  0.0000E+00  0.7333E-01  0.7333E-01
     -7.137  0.0000E+00  0.0000E+00  0.7333E-01  0.7333E-01
     -6.925  0.0000E+00  0.0000E+00  0.7333E-01  0.7333E-01
     -6.714  0.0000E+00  0.0000E+00  0.7333E-01  0.7333E-01
     -6.502  0.0000E+00  0.0000E+00  0.7333E-01  0.7333E-01
     -6.291  0.0000E+00  0.0000E+00  0.7333E-01  0.7333E-01
     -6.079  0.1425E-38  0.1425E-38  0.7333E-01  0.7333E-01
     -5.868  0.8485E-24  0.8485E-24  0.7333E-01  0.7333E-01
     -5.656  0.5707E-13  0.5707E-13  0.7333E-01  0.7333E-01
     -5.445  0.4466E-06  0.4466E-06  0.7333E-01  0.7333E-01
     -5.233 -0.1956E-03 -0.1956E-03  0.7329E-01  0.7329E-01
     -5.022  0.1921E-01  0.1921E-01  0.7736E-01  0.7736E-01
     -4.810  0.1488E-01  0.1488E-01  0.8050E-01  0.8050E-01
     -4.599  0.9220E-02  0.9220E-02  0.8245E-01  0.8245E-01
     -4.387  0.2243E-01  0.2243E-01  0.8720E-01  0.8720E-01
     -4.176  0.2547E-01  0.2547E-01  0.9258E-01  0.9258E-01
     -3.964  0.1506E-01  0.1506E-01  0.9577E-01  0.9577E-01
     -3.753  0.9555E-02  0.9555E-02  0.9779E-01  0.9779E-01
     -3.541  0.1394E-01  0.1394E-01  0.1007E+00  0.1007E+00
     -3.330  0.1747E-01  0.1747E-01  0.1044E+00  0.1044E+00
     -3.118  0.1690E-01  0.1690E-01  0.1080E+00  0.1080E+00
     -2.907  0.1627E-01  0.1627E-01  0.1115E+00  0.1115E+00
     -2.695  0.1948E-01  0.1948E-01  0.1156E+00  0.1156E+00
     -2.483  0.2006E-01  0.2006E-01  0.1198E+00  0.1198E+00
     -2.272  0.2398E-01  0.2398E-01  0.1249E+00  0.1249E+00
     -2.060  0.2939E-01  0.2939E-01  0.1311E+00  0.1311E+00
     -1.849  0.1966E-01  0.1966E-01  0.1353E+00  0.1353E+00
     -1.637  0.2237E-01  0.2237E-01  0.1400E+00  0.1400E+00
     -1.426  0.2400E-01  0.2400E-01  0.1451E+00  0.1451E+00
     -1.214  0.2788E-01  0.2788E-01  0.1510E+00  0.1510E+00
     -1.003  0.1515E-01  0.1515E-01  0.1542E+00  0.1542E+00
     -0.791  0.1459E-01  0.1459E-01  0.1573E+00  0.1573E+00
     -0.580  0.3069E-01  0.3069E-01  0.1638E+00  0.1638E+00
     -0.368  0.2361E-01  0.2361E-01  0.1687E+00  0.1687E+00
     -0.157  0.3941E-02  0.3941E-02  0.1696E+00  0.1696E+00
      0.055  0.1726E-01  0.1726E-01  0.1732E+00  0.1732E+00
      0.266  0.4796E-03  0.4796E-03  0.1733E+00  0.1733E+00
      0.478  0.1356E-04  0.1356E-04  0.1733E+00  0.1733E+00
      0.689  0.7952E-10  0.7952E-10  0.1733E+00  0.1733E+00
      0.901  0.0000E+00  0.0000E+00  0.1733E+00  0.1733E+00
      1.112  0.0000E+00  0.0000E+00  0.1733E+00  0.1733E+00
      1.324  0.0000E+00  0.0000E+00  0.1733E+00  0.1733E+00
      1.535  0.1221E-29  0.1221E-29  0.1733E+00  0.1733E+00
      1.747  0.3193E-17  0.3193E-17  0.1733E+00  0.1733E+00
      1.959  0.7216E-09  0.7216E-09  0.1733E+00  0.1733E+00
      2.170  0.1703E-05  0.1703E-05  0.1733E+00  0.1733E+00
      2.382  0.3655E-03  0.3655E-03  0.1734E+00  0.1734E+00
      2.593  0.8558E-03  0.8558E-03  0.1736E+00  0.1736E+00
      2.805  0.6975E-02  0.6975E-02  0.1751E+00  0.1751E+00
      3.016  0.2101E-01  0.2101E-01  0.1795E+00  0.1795E+00
      3.228  0.7038E-02  0.7038E-02  0.1810E+00  0.1810E+00
      3.439  0.4145E-02  0.4145E-02  0.1819E+00  0.1819E+00
      3.651  0.1298E-01  0.1298E-01  0.1846E+00  0.1846E+00
      3.862  0.9351E-02  0.9351E-02  0.1866E+00  0.1866E+00
      4.074  0.1305E-01  0.1305E-01  0.1894E+00  0.1894E+00
      4.285  0.1866E-01  0.1866E-01  0.1933E+00  0.1933E+00
      4.497  0.1589E-01  0.1589E-01  0.1967E+00  0.1967E+00
      4.708  0.1939E-01  0.1939E-01  0.2008E+00  0.2008E+00
      4.920  0.2198E-01  0.2198E-01  0.2054E+00  0.2054E+00
      5.131  0.1326E-01  0.1326E-01  0.2082E+00  0.2082E+00
      5.343  0.1122E-01  0.1122E-01  0.2106E+00  0.2106E+00
      5.554  0.1614E-01  0.1614E-01  0.2140E+00  0.2140E+00
      5.766  0.8198E-02  0.8198E-02  0.2157E+00  0.2157E+00
      5.977  0.7985E-02  0.7985E-02  0.2174E+00  0.2174E+00
      6.189  0.4768E-02  0.4768E-02  0.2184E+00  0.2184E+00
      6.400  0.5959E-02  0.5963E-02  0.2197E+00  0.2197E+00
      6.612  0.7562E-02  0.7558E-02  0.2213E+00  0.2213E+00
      6.824  0.7238E-02  0.7237E-02  0.2228E+00  0.2228E+00
      7.035  0.3492E-02  0.3493E-02  0.2236E+00  0.2236E+00
      7.247  0.5296E-02  0.5298E-02  0.2247E+00  0.2247E+00
      7.458  0.5643E-02  0.5641E-02  0.2259E+00  0.2259E+00
      7.670  0.5290E-02  0.5294E-02  0.2270E+00  0.2270E+00
      7.881  0.7622E-02  0.7618E-02  0.2286E+00  0.2286E+00
      8.093  0.4094E-02  0.4094E-02  0.2295E+00  0.2295E+00
      8.304 -0.8906E-04 -0.8903E-04  0.2295E+00  0.2295E+00
      8.516  0.9263E-06  0.9261E-06  0.2295E+00  0.2295E+00
      8.727 -0.4055E-04 -0.4057E-04  0.2295E+00  0.2295E+00
      8.939  0.2424E-02  0.2425E-02  0.2300E+00  0.2300E+00
      9.150  0.1349E-03  0.1341E-03  0.2300E+00  0.2300E+00
      9.362  0.3246E-05  0.3239E-05  0.2300E+00  0.2300E+00
      9.573  0.1939E-10  0.1915E-10  0.2300E+00  0.2300E+00
      9.785  0.0000E+00  0.0000E+00  0.2300E+00  0.2300E+00
      9.996  0.0000E+00  0.0000E+00  0.2300E+00  0.2300E+00
     10.208  0.0000E+00  0.0000E+00  0.2300E+00  0.2300E+00
     10.419  0.0000E+00  0.0000E+00  0.2300E+00  0.2300E+00
     10.631  0.0000E+00  0.0000E+00  0.2300E+00  0.2300E+00
     10.842  0.0000E+00  0.0000E+00  0.2300E+00  0.2300E+00
     11.054  0.0000E+00  0.0000E+00  0.2300E+00  0.2300E+00
     11.265  0.0000E+00  0.0000E+00  0.2300E+00  0.2300E+00
     11.477  0.0000E+00  0.0000E+00  0.2300E+00  0.2300E+00
     11.689  0.0000E+00  0.0000E+00  0.2300E+00  0.2300E+00
     11.900  0.0000E+00  0.0000E+00  0.2300E+00  0.2300E+00
     12.112  0.0000E+00  0.0000E+00  0.2300E+00  0.2300E+00
     12.323  0.0000E+00  0.0000E+00  0.2300E+00  0.2300E+00
     12.535  0.0000E+00  0.0000E+00  0.2300E+00  0.2300E+00
     12.746  0.0000E+00  0.0000E+00  0.2300E+00  0.2300E+00
     12.958  0.0000E+00  0.0000E+00  0.2300E+00  0.2300E+00
     13.169  0.0000E+00  0.0000E+00  0.2300E+00  0.2300E+00
     13.381  0.0000E+00  0.0000E+00  0.2300E+00  0.2300E+00
     13.592  0.0000E+00  0.0000E+00  0.2300E+00  0.2300E+00
     13.804  0.0000E+00  0.0000E+00  0.2300E+00  0.2300E+00
     14.015  0.0000E+00  0.0000E+00  0.2300E+00  0.2300E+00
     14.227  0.0000E+00  0.0000E+00  0.2300E+00  0.2300E+00
     14.438  0.0000E+00  0.0000E+00  0.2300E+00  0.2300E+00
     14.650  0.0000E+00  0.0000E+00  0.2300E+00  0.2300E+00
     14.861  0.0000E+00  0.0000E+00  0.2300E+00  0.2300E+00
     15.073  0.0000E+00  0.0000E+00  0.2300E+00  0.2300E+00
     15.284  0.0000E+00  0.0000E+00  0.2300E+00  0.2300E+00
     15.496  0.0000E+00  0.0000E+00  0.2300E+00  0.2300E+00
     15.707  0.0000E+00  0.0000E+00  0.2300E+00  0.2300E+00
     15.919  0.0000E+00  0.0000E+00  0.2300E+00  0.2300E+00
     16.131  0.0000E+00  0.0000E+00  0.2300E+00  0.2300E+00
     16.342  0.0000E+00  0.0000E+00  0.2300E+00  0.2300E+00
     16.554  0.0000E+00  0.0000E+00  0.2300E+00  0.2300E+00
     16.765  0.0000E+00  0.0000E+00  0.2300E+00  0.2300E+00
     16.977  0.0000E+00  0.0000E+00  0.2300E+00  0.2300E+00
     17.188  0.0000E+00  0.0000E+00  0.2300E+00  0.2300E+00
     17.400  0.0000E+00  0.0000E+00  0.2300E+00  0.2300E+00
     17.611  0.0000E+00  0.0000E+00  0.2300E+00  0.2300E+00
     17.823  0.0000E+00  0.0000E+00  0.2300E+00  0.2300E+00
     18.034  0.0000E+00  0.0000E+00  0.2300E+00  0.2300E+00
     18.246  0.0000E+00  0.0000E+00  0.2300E+00  0.2300E+00
     18.457  0.0000E+00  0.0000E+00  0.2300E+00  0.2300E+00
     18.669  0.0000E+00  0.0000E+00  0.2300E+00  0.2300E+00
     18.880  0.0000E+00  0.0000E+00  0.2300E+00  0.2300E+00
     19.092  0.0000E+00  0.0000E+00  0.2300E+00  0.2300E+00
     19.303  0.0000E+00  0.0000E+00  0.2300E+00  0.2300E+00
     19.515  0.0000E+00  0.0000E+00  0.2300E+00  0.2300E+00
     19.726  0.0000E+00  0.0000E+00  0.2300E+00  0.2300E+00
     19.938  0.0000E+00  0.0000E+00  0.2300E+00  0.2300E+00
     20.149  0.0000E+00  0.0000E+00  0.2300E+00  0.2300E+00
     20.361  0.0000E+00  0.0000E+00  0.2300E+00  0.2300E+00
     20.572  0.0000E+00  0.0000E+00  0.2300E+00  0.2300E+00
     20.784  0.0000E+00  0.0000E+00  0.2300E+00  0.2300E+00
     20.996  0.0000E+00  0.0000E+00  0.2300E+00  0.2300E+00
     21.207  0.0000E+00  0.0000E+00  0.2300E+00  0.2300E+00
     21.419  0.0000E+00  0.0000E+00  0.2300E+00  0.2300E+00
     21.630  0.0000E+00  0.0000E+00  0.2300E+00  0.2300E+00
     21.842  0.0000E+00  0.0000E+00  0.2300E+00  0.2300E+00
     22.053  0.0000E+00  0.0000E+00  0.2300E+00  0.2300E+00
     22.265  0.0000E+00  0.0000E+00  0.2300E+00  0.2300E+00
     22.476  0.0000E+00  0.0000E+00  0.2300E+00  0.2300E+00
     22.688  0.0000E+00  0.0000E+00  0.2300E+00  0.2300E+00
     22.899  0.0000E+00  0.0000E+00  0.2300E+00  0.2300E+00
     23.111  0.0000E+00  0.0000E+00  0.2300E+00  0.2300E+00
     23.322  0.0000E+00  0.0000E+00  0.2300E+00  0.2300E+00
     23.534  0.0000E+00  0.0000E+00  0.2300E+00  0.2300E+00
     23.745  0.0000E+00  0.0000E+00  0.2300E+00  0.2300E+00
     23.957  0.0000E+00  0.0000E+00  0.2300E+00  0.2300E+00
     24.168  0.0000E+00  0.0000E+00  0.2300E+00  0.2300E+00
     24.380  0.0000E+00  0.0000E+00  0.2300E+00  0.2300E+00
     24.591  0.0000E+00  0.0000E+00  0.2300E+00  0.2300E+00
     24.803  0.0000E+00  0.0000E+00  0.2300E+00  0.2300E+00
     25.014  0.0000E+00  0.0000E+00  0.2300E+00  0.2300E+00
     25.226  0.0000E+00  0.0000E+00  0.2300E+00  0.2300E+00
     25.437  0.0000E+00  0.0000E+00  0.2300E+00  0.2300E+00
     25.649  0.0000E+00  0.0000E+00  0.2300E+00  0.2300E+00
     25.861  0.0000E+00  0.0000E+00  0.2300E+00  0.2300E+00
     26.072  0.0000E+00  0.0000E+00  0.2300E+00  0.2300E+00
     26.284  0.0000E+00  0.0000E+00  0.2300E+00  0.2300E+00
     26.495  0.0000E+00  0.0000E+00  0.2300E+00  0.2300E+00
     26.707  0.0000E+00  0.0000E+00  0.2300E+00  0.2300E+00
     26.918  0.0000E+00  0.0000E+00  0.2300E+00  0.2300E+00
     27.130  0.0000E+00  0.0000E+00  0.2300E+00  0.2300E+00
     27.341  0.0000E+00  0.0000E+00  0.2300E+00  0.2300E+00
     27.553  0.0000E+00  0.0000E+00  0.2300E+00  0.2300E+00
     27.764  0.0000E+00  0.0000E+00  0.2300E+00  0.2300E+00
     27.976  0.0000E+00  0.0000E+00  0.2300E+00  0.2300E+00
     28.187  0.0000E+00  0.0000E+00  0.2300E+00  0.2300E+00
     28.399  0.0000E+00  0.0000E+00  0.2300E+00  0.2300E+00
     28.610  0.0000E+00  0.0000E+00  0.2300E+00  0.2300E+00
     28.822  0.0000E+00  0.0000E+00  0.2300E+00  0.2300E+00
     29.033  0.0000E+00  0.0000E+00  0.2300E+00  0.2300E+00
     29.245  0.0000E+00  0.0000E+00  0.2300E+00  0.2300E+00
     29.456  0.0000E+00  0.0000E+00  0.2300E+00  0.2300E+00
     29.668  0.0000E+00  0.0000E+00  0.2300E+00  0.2300E+00
     29.879  0.0000E+00  0.0000E+00  0.2300E+00  0.2300E+00
     30.091  0.0000E+00  0.0000E+00  0.2300E+00  0.2300E+00
     30.303  0.0000E+00  0.0000E+00  0.2300E+00  0.2300E+00
     30.514  0.0000E+00  0.0000E+00  0.2300E+00  0.2300E+00
     30.726  0.0000E+00  0.0000E+00  0.2300E+00  0.2300E+00
     30.937  0.0000E+00  0.0000E+00  0.2300E+00  0.2300E+00
     31.149  0.0000E+00  0.0000E+00  0.2300E+00  0.2300E+00
     31.360  0.0000E+00  0.0000E+00  0.2300E+00  0.2300E+00
     31.572  0.0000E+00  0.0000E+00  0.2300E+00  0.2300E+00
     31.783  0.0000E+00  0.0000E+00  0.2300E+00  0.2300E+00
     31.995  0.0000E+00  0.0000E+00  0.2300E+00  0.2300E+00
     32.206  0.0000E+00  0.0000E+00  0.2300E+00  0.2300E+00
     32.418  0.0000E+00  0.0000E+00  0.2300E+00  0.2300E+00
     32.629  0.0000E+00  0.0000E+00  0.2300E+00  0.2300E+00
     32.841  0.0000E+00  0.0000E+00  0.2300E+00  0.2300E+00
     33.052  0.0000E+00  0.0000E+00  0.2300E+00  0.2300E+00
     33.264  0.0000E+00  0.0000E+00  0.2300E+00  0.2300E+00
     33.475  0.0000E+00  0.0000E+00  0.2300E+00  0.2300E+00
     33.687  0.0000E+00  0.0000E+00  0.2300E+00  0.2300E+00
     33.898  0.0000E+00  0.0000E+00  0.2300E+00  0.2300E+00
     34.110  0.0000E+00  0.0000E+00  0.2300E+00  0.2300E+00
     34.321  0.0000E+00  0.0000E+00  0.2300E+00  0.2300E+00
     34.533  0.0000E+00  0.0000E+00  0.2300E+00  0.2300E+00
     34.744  0.0000E+00  0.0000E+00  0.2300E+00  0.2300E+00
     34.956  0.0000E+00  0.0000E+00  0.2300E+00  0.2300E+00
     35.168  0.0000E+00  0.0000E+00  0.2300E+00  0.2300E+00
     35.379  0.0000E+00  0.0000E+00  0.2300E+00  0.2300E+00
     35.591  0.0000E+00  0.0000E+00  0.2300E+00  0.2300E+00
     35.802  0.0000E+00  0.0000E+00  0.2300E+00  0.2300E+00
     36.014  0.0000E+00  0.0000E+00  0.2300E+00  0.2300E+00
     36.225  0.0000E+00  0.0000E+00  0.2300E+00  0.2300E+00
     36.437  0.0000E+00  0.0000E+00  0.2300E+00  0.2300E+00
     36.648  0.0000E+00  0.0000E+00  0.2300E+00  0.2300E+00
     36.860  0.0000E+00  0.0000E+00  0.2300E+00  0.2300E+00
     37.071  0.0000E+00  0.0000E+00  0.2300E+00  0.2300E+00
     37.283  0.0000E+00  0.0000E+00  0.2300E+00  0.2300E+00
     37.494  0.0000E+00  0.0000E+00  0.2300E+00  0.2300E+00
     37.706  0.0000E+00  0.0000E+00  0.2300E+00  0.2300E+00
     37.917  0.0000E+00  0.0000E+00  0.2300E+00  0.2300E+00
     38.129  0.0000E+00  0.0000E+00  0.2300E+00  0.2300E+00
     38.340  0.0000E+00  0.0000E+00  0.2300E+00  0.2300E+00
