   14   14  300    2
  0.1470686E+02  0.1309307E-08  0.3872730E-09  0.4060946E-09  0.5000000E-15
  1.000000000000000E-004
  CAR 
 Crystal                                 
  104   39   69
 
  0.0000000E+00  0.0000000E+00  0.0000000E+00  0.8000000E-02
   1      -31.153287    -31.153287
   2      -31.057898    -31.057898
   3      -31.004470    -31.004470
   4      -30.957068    -30.957068
   5      -30.946043    -30.946043
   6      -30.941523    -30.941523
   7      -30.940667    -30.940667
   8      -30.937234    -30.937234
   9      -30.934108    -30.934108
  10      -30.878840    -30.878840
  11      -30.877159    -30.877159
  12      -30.875371    -30.875371
  13      -17.523581    -17.523581
  14      -17.387236    -17.387236
  15      -16.938343    -16.938343
  16      -16.912620    -16.912620
  17      -16.491390    -16.491390
  18      -16.337162    -16.337162
  19      -16.233575    -16.233575
  20      -16.225572    -16.225572
  21      -16.182888    -16.182888
  22      -16.132189    -16.132189
  23       -5.154550     -5.154550
  24       -4.422407     -4.422407
  25       -4.282477     -4.282477
  26       -4.268114     -4.268114
  27       -4.198728     -4.198728
  28       -2.946733     -2.946733
  29       -2.585607     -2.585607
  30       -2.570883     -2.570883
  31       -2.500160     -2.500160
  32       -2.237944     -2.237944
  33       -2.210077     -2.210077
  34       -2.122921     -2.122921
  35       -2.049197     -2.049197
  36       -1.885282     -1.885282
  37       -1.838559     -1.838559
  38       -1.702299     -1.702299
  39       -1.574153     -1.574153
  40       -1.383341     -1.383341
  41       -1.284196     -1.284196
  42       -1.242065     -1.242065
  43       -1.235413     -1.235413
  44       -1.138524     -1.138524
  45       -1.025976     -1.025976
  46       -1.017415     -1.017415
  47       -0.971373     -0.971373
  48       -0.865281     -0.865281
  49       -0.830550     -0.830550
  50       -0.702719     -0.702719
  51       -0.667261     -0.667261
  52       -0.559595     -0.559595
  53        2.337040      2.337040
  54        2.553017      2.553017
  55        2.944456      2.944456
  56        2.948265      2.948265
  57        3.154658      3.154658
  58        3.184252      3.184252
  59        4.195802      4.195802
  60        4.394368      4.394368
  61        4.566012      4.566012
  62        4.654545      4.654545
  63        4.989789      4.989789
  64        5.150664      5.150664
  65        5.376278      5.376278
  66        5.410784      5.410784
  67        6.103374      6.103374
  68        6.244192      6.244198
  69        6.355209      6.355212
 
  0.2000000E+00  0.0000000E+00  0.1084202E-18  0.1600000E-01
   1      -31.147556    -31.147556
   2      -31.076227    -31.076227
   3      -30.989106    -30.989106
   4      -30.957607    -30.957607
   5      -30.946389    -30.946389
   6      -30.943626    -30.943626
   7      -30.940355    -30.940355
   8      -30.937583    -30.937583
   9      -30.928591    -30.928591
  10      -30.882449    -30.882449
  11      -30.878492    -30.878492
  12      -30.875677    -30.875677
  13      -17.512776    -17.512776
  14      -17.402547    -17.402547
  15      -16.934713    -16.934713
  16      -16.914419    -16.914419
  17      -16.476331    -16.476331
  18      -16.353207    -16.353207
  19      -16.233525    -16.233525
  20      -16.230121    -16.230121
  21      -16.172366    -16.172366
  22      -16.134437    -16.134437
  23       -5.113850     -5.113850
  24       -4.547487     -4.547487
  25       -4.408927     -4.408927
  26       -4.285092     -4.285092
  27       -3.906673     -3.906673
  28       -3.039373     -3.039373
  29       -2.574060     -2.574060
  30       -2.533812     -2.533812
  31       -2.490028     -2.490028
  32       -2.274568     -2.274568
  33       -2.145297     -2.145297
  34       -2.142939     -2.142939
  35       -2.136445     -2.136445
  36       -1.877094     -1.877094
  37       -1.805305     -1.805305
  38       -1.659173     -1.659173
  39       -1.590685     -1.590685
  40       -1.412669     -1.412669
  41       -1.272408     -1.272408
  42       -1.240313     -1.240313
  43       -1.234443     -1.234443
  44       -1.164363     -1.164363
  45       -1.026627     -1.026627
  46       -1.018006     -1.018006
  47       -0.935168     -0.935168
  48       -0.862098     -0.862098
  49       -0.831139     -0.831139
  50       -0.723991     -0.723991
  51       -0.657912     -0.657912
  52       -0.574974     -0.574974
  53        2.354287      2.354287
  54        2.526698      2.526698
  55        2.967883      2.967883
  56        2.972973      2.972973
  57        3.137225      3.137225
  58        3.161724      3.161724
  59        4.226121      4.226121
  60        4.412669      4.412669
  61        4.520457      4.520457
  62        4.613423      4.613423
  63        5.089753      5.089753
  64        5.183153      5.183153
  65        5.361649      5.361649
  66        5.449689      5.449689
  67        6.041639      6.041639
  68        6.114405      6.114405
  69        6.388039      6.388036
 
  0.4000000E+00  0.0000000E+00  0.2168404E-18  0.1600000E-01
   1      -31.130993    -31.130993
   2      -31.105702    -31.105702
   3      -30.969957    -30.969957
   4      -30.960536    -30.960536
   5      -30.946745    -30.946745
   6      -30.945911    -30.945910
   7      -30.939522    -30.939522
   8      -30.938467    -30.938467
   9      -30.914846    -30.914846
  10      -30.896788    -30.896788
  11      -30.877597    -30.877597
  12      -30.876516    -30.876516
  13      -17.480677    -17.480677
  14      -17.439532    -17.439532
  15      -16.926988    -16.926988
  16      -16.919628    -16.919628
  17      -16.438213    -16.438213
  18      -16.391167    -16.391167
  19      -16.233684    -16.233684
  20      -16.232905    -16.232905
  21      -16.155551    -16.155551
  22      -16.141979    -16.141979
  23       -4.994708     -4.994708
  24       -4.801855     -4.801855
  25       -4.372302     -4.372302
  26       -4.324855     -4.324855
  27       -3.574643     -3.574643
  28       -3.267557     -3.267557
  29       -2.541981     -2.541981
  30       -2.503719     -2.503719
  31       -2.431213     -2.431213
  32       -2.290929     -2.290929
  33       -2.255348     -2.255348
  34       -2.195003     -2.195003
  35       -2.041016     -2.041016
  36       -1.949780     -1.949780
  37       -1.706140     -1.706140
  38       -1.632677     -1.632677
  39       -1.576346     -1.576346
  40       -1.484209     -1.484209
  41       -1.243582     -1.243582
  42       -1.238060     -1.238060
  43       -1.235832     -1.235832
  44       -1.207962     -1.207962
  45       -1.021302     -1.021302
  46       -1.018781     -1.018781
  47       -0.879717     -0.879717
  48       -0.862724     -0.862724
  49       -0.819016     -0.819016
  50       -0.766437     -0.766437
  51       -0.631005     -0.631005
  52       -0.597418     -0.597418
  53        2.402313      2.402313
  54        2.466809      2.466809
  55        3.029288      3.029288
  56        3.029630      3.029630
  57        3.090716      3.090716
  58        3.103404      3.103404
  59        4.309135      4.309135
  60        4.420090      4.420090
  61        4.466711      4.466711
  62        4.538598      4.538598
  63        5.253621      5.253621
  64        5.314926      5.314926
  65        5.318604      5.318604
  66        5.490923      5.490923
  67        5.895931      5.895932
  68        5.917252      5.917252
  69        6.452153      6.449518
 
  0.0000000E+00  0.2000000E+00  0.0000000E+00  0.1600000E-01
   1      -31.151969    -31.151969
   2      -31.068729    -31.068729
   3      -31.037685    -31.037685
   4      -30.999388    -30.999388
   5      -30.969655    -30.969655
   6      -30.953332    -30.953332
   7      -30.949901    -30.949901
   8      -30.941176    -30.941176
   9      -30.928231    -30.928231
  10      -30.913942    -30.913942
  11      -30.902082    -30.902082
  12      -30.875533    -30.875533
  13      -17.273629    -17.273629
  14      -17.112169    -17.112169
  15      -16.751412    -16.751412
  16      -16.683628    -16.683628
  17      -16.447176    -16.447176
  18      -16.295254    -16.295254
  19      -16.214074    -16.214074
  20      -16.211384    -16.211384
  21      -16.187792    -16.187792
  22      -16.128431    -16.128431
  23       -5.018561     -5.018561
  24       -4.947144     -4.947144
  25       -4.874518     -4.874518
  26       -4.227556     -4.227556
  27       -4.108213     -4.108213
  28       -3.026475     -3.026475
  29       -2.754100     -2.754100
  30       -2.713444     -2.713444
  31       -2.656510     -2.656510
  32       -2.653143     -2.653143
  33       -2.296153     -2.296153
  34       -2.171469     -2.171469
  35       -2.166851     -2.166851
  36       -2.127653     -2.127653
  37       -1.708005     -1.708005
  38       -1.668689     -1.668689
  39       -1.637657     -1.637657
  40       -1.535413     -1.535413
  41       -1.463585     -1.463585
  42       -1.416630     -1.416630
  43       -1.239365     -1.239365
  44       -1.102257     -1.102257
  45       -1.058402     -1.058402
  46       -1.029718     -1.029718
  47       -0.996504     -0.996504
  48       -0.741572     -0.741572
  49       -0.719833     -0.719833
  50       -0.703674     -0.703674
  51       -0.697391     -0.697391
  52       -0.664834     -0.664834
  53        2.769693      2.769693
  54        2.891320      2.891320
  55        2.892295      2.892295
  56        3.140736      3.140736
  57        3.406467      3.406467
  58        3.438330      3.438330
  59        3.513639      3.513639
  60        3.741830      3.741830
  61        4.107734      4.107734
  62        4.380429      4.380429
  63        4.539260      4.539260
  64        4.598909      4.598909
  65        5.397495      5.397495
  66        5.702464      5.702464
  67        6.492671      6.492671
  68        6.668119      6.668108
  69        6.675214      6.675213
 
  0.2000000E+00  0.2000000E+00  0.1084202E-18  0.3200000E-01
   1      -31.146973    -31.146973
   2      -31.085290    -31.085290
   3      -31.025838    -31.025838
   4      -31.000714    -31.000714
   5      -30.967326    -30.967326
   6      -30.954464    -30.954464
   7      -30.949160    -30.949160
   8      -30.942754    -30.942754
   9      -30.924529    -30.924529
  10      -30.913864    -30.913864
  11      -30.901500    -30.901500
  12      -30.879285    -30.879285
  13      -17.261801    -17.261801
  14      -17.132301    -17.132301
  15      -16.740397    -16.740397
  16      -16.688135    -16.688135
  17      -16.435147    -16.435147
  18      -16.314669    -16.314669
  19      -16.215305    -16.215305
  20      -16.214771    -16.214771
  21      -16.175211    -16.175211
  22      -16.131367    -16.131367
  23       -5.023854     -5.023854
  24       -4.898141     -4.898141
  25       -4.894699     -4.894699
  26       -4.422376     -4.422376
  27       -3.880625     -3.880625
  28       -3.103723     -3.103723
  29       -2.754171     -2.754171
  30       -2.734816     -2.734816
  31       -2.649307     -2.649307
  32       -2.627987     -2.627987
  33       -2.282902     -2.282902
  34       -2.199307     -2.199307
  35       -2.167603     -2.167603
  36       -2.143657     -2.143657
  37       -1.701168     -1.701168
  38       -1.671131     -1.671131
  39       -1.610961     -1.610961
  40       -1.564661     -1.564661
  41       -1.425853     -1.425853
  42       -1.410987     -1.410987
  43       -1.250388     -1.250388
  44       -1.173059     -1.173059
  45       -1.056850     -1.056850
  46       -1.011936     -1.011936
  47       -0.944155     -0.944155
  48       -0.742227     -0.742227
  49       -0.739836     -0.739836
  50       -0.696516     -0.696516
  51       -0.694263     -0.694263
  52       -0.677974     -0.677974
  53        2.713687      2.713687
  54        2.819548      2.819548
  55        2.986029      2.986029
  56        3.202574      3.202574
  57        3.388709      3.388709
  58        3.434208      3.434208
  59        3.530823      3.530823
  60        3.720354      3.720354
  61        4.132849      4.132849
  62        4.351032      4.351032
  63        4.535880      4.535880
  64        4.579427      4.579427
  65        5.457033      5.457033
  66        5.710023      5.710023
  67        6.460764      6.460764
  68        6.609669      6.609671
  69        6.696373      6.696377
 
  0.4000000E+00  0.2000000E+00  0.2168404E-18  0.3200000E-01
   1      -31.132540    -31.132540
   2      -31.110707    -31.110707
   3      -31.012646    -31.012646
   4      -31.004817    -31.004817
   5      -30.962114    -30.962114
   6      -30.957413    -30.957413
   7      -30.947526    -30.947526
   8      -30.945331    -30.945331
   9      -30.917650    -30.917650
  10      -30.914272    -30.914272
  11      -30.897941    -30.897941
  12      -30.888740    -30.888740
  13      -17.227159    -17.227159
  14      -17.178228    -17.178228
  15      -16.718384    -16.718384
  16      -16.699381    -16.699381
  17      -16.402053    -16.402053
  18      -16.356038    -16.356038
  19      -16.216360    -16.216360
  20      -16.215990    -16.215990
  21      -16.154911    -16.154911
  22      -16.139938    -16.139938
  23       -5.001015     -5.001015
  24       -4.949226     -4.949226
  25       -4.778521     -4.778521
  26       -4.619838     -4.619838
  27       -3.586509     -3.586509
  28       -3.309295     -3.309295
  29       -2.752795     -2.752795
  30       -2.750315     -2.750315
  31       -2.628964     -2.628964
  32       -2.616011     -2.616011
  33       -2.251476     -2.251476
  34       -2.226795     -2.226795
  35       -2.182190     -2.182190
  36       -2.174213     -2.174213
  37       -1.681866     -1.681866
  38       -1.673631     -1.673631
  39       -1.590954     -1.590954
  40       -1.589110     -1.589110
  41       -1.379468     -1.379468
  42       -1.367922     -1.367922
  43       -1.274994     -1.274994
  44       -1.247252     -1.247252
  45       -1.044753     -1.044753
  46       -1.027143     -1.027143
  47       -0.851092     -0.851092
  48       -0.779003     -0.779003
  49       -0.735012     -0.735012
  50       -0.716270     -0.716270
  51       -0.686347     -0.686347
  52       -0.679781     -0.679781
  53        2.683507      2.683507
  54        2.724877      2.724877
  55        3.122417      3.122417
  56        3.219997      3.219997
  57        3.391338      3.391338
  58        3.420240      3.420240
  59        3.583522      3.583522
  60        3.661516      3.661516
  61        4.199147      4.199147
  62        4.281792      4.281792
  63        4.536667      4.536667
  64        4.547238      4.547238
  65        5.589792      5.589792
  66        5.693522      5.693522
  67        6.419180      6.419180
  68        6.468601      6.468601
  69        6.734745      6.734539
 
  0.0000000E+00  0.4000000E+00  0.0000000E+00  0.1600000E-01
   1      -31.153981    -31.153981
   2      -31.121271    -31.121271
   3      -31.104841    -31.104841
   4      -31.089341    -31.089341
   5      -30.981171    -30.981171
   6      -30.977880    -30.977880
   7      -30.946844    -30.946844
   8      -30.942158    -30.942158
   9      -30.933510    -30.933510
  10      -30.932160    -30.932160
  11      -30.913473    -30.913473
  12      -30.892239    -30.892239
  13      -16.838500    -16.838500
  14      -16.651781    -16.651781
  15      -16.583708    -16.583708
  16      -16.365057    -16.365057
  17      -16.233259    -16.233259
  18      -16.201379    -16.201379
  19      -16.187385    -16.187385
  20      -16.178702    -16.178702
  21      -16.171670    -16.171670
  22      -16.119232    -16.119232
  23       -5.109600     -5.109600
  24       -5.052083     -5.052083
  25       -4.632352     -4.632352
  26       -4.250666     -4.250666
  27       -4.171813     -4.171813
  28       -4.155794     -4.155794
  29       -3.819283     -3.819283
  30       -3.138397     -3.138397
  31       -2.756246     -2.756246
  32       -2.754506     -2.754506
  33       -2.560337     -2.560337
  34       -2.368405     -2.368405
  35       -2.268834     -2.268834
  36       -2.193818     -2.193818
  37       -2.110364     -2.110364
  38       -2.093861     -2.093861
  39       -1.746640     -1.746640
  40       -1.679107     -1.679107
  41       -1.569103     -1.569103
  42       -1.522888     -1.522888
  43       -1.439093     -1.439093
  44       -1.344822     -1.344822
  45       -1.002557     -1.002557
  46       -0.976639     -0.976639
  47       -0.922625     -0.922625
  48       -0.919736     -0.919736
  49       -0.821351     -0.821351
  50       -0.776863     -0.776863
  51       -0.711346     -0.711346
  52       -0.656498     -0.656498
  53        2.785805      2.785805
  54        2.817883      2.817883
  55        2.842207      2.842207
  56        3.005125      3.005125
  57        3.674350      3.674350
  58        3.779831      3.779831
  59        3.814999      3.814999
  60        4.036434      4.036434
  61        4.558754      4.558753
  62        4.628045      4.628045
  63        4.761311      4.761311
  64        4.790079      4.790079
  65        5.505308      5.505308
  66        5.845764      5.845764
  67        6.613974      6.613974
  68        6.614163      6.614163
  69        6.728081      6.728083
 
  0.2000000E+00  0.4000000E+00  0.1084202E-18  0.3200000E-01
   1      -31.151460    -31.151460
   2      -31.125604    -31.125604
   3      -31.102601    -31.102601
   4      -31.090640    -31.090640
   5      -30.980229    -30.980229
   6      -30.977661    -30.977661
   7      -30.946505    -30.946505
   8      -30.942738    -30.942738
   9      -30.933420    -30.933420
  10      -30.932304    -30.932304
  11      -30.911472    -30.911472
  12      -30.894254    -30.894254
  13      -16.828361    -16.828361
  14      -16.694940    -16.694940
  15      -16.538347    -16.538347
  16      -16.379240    -16.379240
  17      -16.232288    -16.232288
  18      -16.210312    -16.210312
  19      -16.186306    -16.186306
  20      -16.178944    -16.178944
  21      -16.161435    -16.161435
  22      -16.121452    -16.121452
  23       -5.107863     -5.107863
  24       -5.062086     -5.062086
  25       -4.607767     -4.607767
  26       -4.329407     -4.329407
  27       -4.169578     -4.169578
  28       -4.156232     -4.156232
  29       -3.691746     -3.691746
  30       -3.125402     -3.125402
  31       -2.803945     -2.803945
  32       -2.758418     -2.758418
  33       -2.557392     -2.557392
  34       -2.383770     -2.383770
  35       -2.302877     -2.302877
  36       -2.226413     -2.226413
  37       -2.184466     -2.184466
  38       -2.147252     -2.147252
  39       -1.713586     -1.713586
  40       -1.645063     -1.645063
  41       -1.519990     -1.519990
  42       -1.505942     -1.505942
  43       -1.409656     -1.409656
  44       -1.310015     -1.310015
  45       -0.989916     -0.989916
  46       -0.983284     -0.983284
  47       -0.938227     -0.938227
  48       -0.923312     -0.923312
  49       -0.809157     -0.809157
  50       -0.778508     -0.778508
  51       -0.707636     -0.707636
  52       -0.665658     -0.665658
  53        2.699559      2.699559
  54        2.772874      2.772874
  55        2.886653      2.886653
  56        3.007082      3.007082
  57        3.698040      3.698040
  58        3.780058      3.780058
  59        3.883814      3.883814
  60        4.093727      4.093727
  61        4.461717      4.461717
  62        4.561733      4.561733
  63        4.801348      4.801348
  64        4.814080      4.814080
  65        5.556154      5.556154
  66        5.829952      5.829952
  67        6.573092      6.573092
  68        6.664318      6.664317
  69        6.726161      6.726155
 
  0.4000000E+00  0.4000000E+00  0.2168404E-18  0.3200000E-01
   1      -31.144475    -31.144475
   2      -31.134845    -31.134845
   3      -31.098373    -31.098373
   4      -31.094007    -31.094007
   5      -30.978465    -30.978465
   6      -30.977547    -30.977547
   7      -30.945513    -30.945513
   8      -30.944087    -30.944087
   9      -30.933135    -30.933135
  10      -30.932693    -30.932693
  11      -30.906171    -30.906171
  12      -30.899576    -30.899576
  13      -16.798384    -16.798384
  14      -16.751752    -16.751752
  15      -16.474433    -16.474433
  16      -16.418044    -16.418044
  17      -16.228370    -16.228370
  18      -16.221108    -16.221108
  19      -16.183748    -16.183748
  20      -16.180763    -16.180763
  21      -16.144321    -16.144321
  22      -16.130042    -16.130042
  23       -5.100591     -5.100591
  24       -5.082059     -5.082059
  25       -4.541635     -4.541635
  26       -4.446176     -4.446176
  27       -4.164571     -4.164571
  28       -4.160110     -4.160110
  29       -3.437749     -3.437749
  30       -3.196384     -3.196384
  31       -2.841420     -2.841420
  32       -2.786753     -2.786753
  33       -2.541558     -2.541558
  34       -2.465646     -2.465646
  35       -2.346084     -2.346084
  36       -2.336061     -2.336061
  37       -2.185302     -2.185302
  38       -2.174665     -2.174665
  39       -1.676330     -1.676330
  40       -1.641634     -1.641634
  41       -1.502690     -1.502690
  42       -1.490390     -1.490390
  43       -1.291279     -1.291279
  44       -1.254112     -1.254112
  45       -0.992468     -0.992468
  46       -0.979452     -0.979452
  47       -0.955168     -0.955168
  48       -0.929620     -0.929620
  49       -0.794728     -0.794728
  50       -0.784815     -0.784815
  51       -0.695637     -0.695637
  52       -0.681835     -0.681835
  53        2.640165      2.640165
  54        2.670223      2.670223
  55        2.943852      2.943852
  56        2.985049      2.985049
  57        3.737141      3.737141
  58        3.767083      3.767083
  59        4.058365      4.058365
  60        4.219576      4.219576
  61        4.293265      4.293265
  62        4.420063      4.420063
  63        4.838207      4.838207
  64        4.839560      4.839560
  65        5.670810      5.670810
  66        5.774423      5.774423
  67        6.577168      6.577165
  68        6.665225      6.665273
  69        6.705817      6.703568
 
  0.0000000E+00  0.0000000E+00  0.2000000E+00  0.1600000E-01
   1      -31.151934    -31.151934
   2      -31.059781    -31.059781
   3      -31.017830    -31.017830
   4      -30.991898    -30.991898
   5      -30.979660    -30.979660
   6      -30.972354    -30.972354
   7      -30.955182    -30.955182
   8      -30.939433    -30.939433
   9      -30.936015    -30.936015
  10      -30.877790    -30.877790
  11      -30.877281    -30.877281
  12      -30.874315    -30.874315
  13      -17.487478    -17.487478
  14      -17.354013    -17.354013
  15      -16.928655    -16.928655
  16      -16.901181    -16.901181
  17      -16.439697    -16.439697
  18      -16.323786    -16.323786
  19      -15.967221    -15.967221
  20      -15.960961    -15.960961
  21      -15.884565    -15.884565
  22      -15.875474    -15.875474
  23       -5.145984     -5.145984
  24       -4.428108     -4.428108
  25       -4.337733     -4.337733
  26       -4.284191     -4.284191
  27       -4.221345     -4.221345
  28       -3.304951     -3.304951
  29       -3.275574     -3.275574
  30       -3.154485     -3.154485
  31       -2.932980     -2.932980
  32       -2.881846     -2.881846
  33       -2.580466     -2.580466
  34       -2.435727     -2.435727
  35       -2.394313     -2.394313
  36       -2.291932     -2.291932
  37       -2.011981     -2.011981
  38       -2.009243     -2.009243
  39       -1.941933     -1.941933
  40       -1.819028     -1.819028
  41       -1.805574     -1.805574
  42       -1.471624     -1.471624
  43       -1.390759     -1.390759
  44       -1.348049     -1.348049
  45       -1.172020     -1.172020
  46       -1.154316     -1.154316
  47       -1.093302     -1.093302
  48       -1.071305     -1.071305
  49       -1.020015     -1.020015
  50       -0.822449     -0.822449
  51       -0.516637     -0.516637
  52       -0.415495     -0.415495
  53        2.816660      2.816660
  54        3.015504      3.015504
  55        3.528028      3.528028
  56        3.539866      3.539866
  57        3.700104      3.700104
  58        3.794247      3.794247
  59        4.392913      4.392913
  60        4.679356      4.679356
  61        4.745246      4.745246
  62        4.871606      4.871606
  63        5.093306      5.093306
  64        5.182528      5.182528
  65        5.433748      5.433748
  66        5.978314      5.978314
  67        6.441706      6.441706
  68        6.838431      6.838431
  69        6.844755      6.844755
 
  0.2000000E+00  0.0000000E+00  0.2000000E+00  0.1600000E-01
   1      -31.146230    -31.146230
   2      -31.077468    -31.077468
   3      -31.007567    -31.007567
   4      -30.991953    -30.991953
   5      -30.980113    -30.980113
   6      -30.974926    -30.974926
   7      -30.944796    -30.944796
   8      -30.939123    -30.939123
   9      -30.936361    -30.936361
  10      -30.882938    -30.882938
  11      -30.877441    -30.877441
  12      -30.874631    -30.874631
  13      -17.476759    -17.476759
  14      -17.370058    -17.370058
  15      -16.925085    -16.925085
  16      -16.903613    -16.903613
  17      -16.428156    -16.428156
  18      -16.334936    -16.334936
  19      -15.965305    -15.965305
  20      -15.963700    -15.963700
  21      -15.885872    -15.885872
  22      -15.875263    -15.875263
  23       -5.098687     -5.098687
  24       -4.605713     -4.605713
  25       -4.417981     -4.417981
  26       -4.299407     -4.299407
  27       -3.914910     -3.914910
  28       -3.318249     -3.318249
  29       -3.278720     -3.278720
  30       -3.191254     -3.191254
  31       -2.965614     -2.965614
  32       -2.952409     -2.952409
  33       -2.569004     -2.569004
  34       -2.469430     -2.469430
  35       -2.284072     -2.284072
  36       -2.213308     -2.213308
  37       -2.004163     -2.004163
  38       -1.984592     -1.984592
  39       -1.982125     -1.982125
  40       -1.937735     -1.937735
  41       -1.845396     -1.845396
  42       -1.448122     -1.448122
  43       -1.389003     -1.389003
  44       -1.343722     -1.343722
  45       -1.149197     -1.149197
  46       -1.147249     -1.147249
  47       -1.116908     -1.116908
  48       -1.067236     -1.067236
  49       -0.966832     -0.966832
  50       -0.872836     -0.872836
  51       -0.572873     -0.572873
  52       -0.372891     -0.372891
  53        2.835452      2.835452
  54        2.989665      2.989665
  55        3.563460      3.563460
  56        3.574423      3.574423
  57        3.679312      3.679312
  58        3.740944      3.740944
  59        4.415676      4.415676
  60        4.707613      4.707613
  61        4.746574      4.746574
  62        4.775595      4.775595
  63        5.206247      5.206247
  64        5.215027      5.215027
  65        5.423647      5.423647
  66        5.956385      5.956385
  67        6.259525      6.259525
  68        6.808436      6.808436
  69        7.021723      7.021717
 
  0.4000000E+00  0.0000000E+00  0.2000000E+00  0.1600000E-01
   1      -31.129956    -31.129956
   2      -31.105769    -31.105769
   3      -30.997473    -30.997473
   4      -30.992924    -30.992924
   5      -30.980607    -30.980607
   6      -30.978298    -30.978298
   7      -30.938295    -30.938295
   8      -30.937245    -30.937245
   9      -30.922104    -30.922104
  10      -30.898895    -30.898895
  11      -30.876550    -30.876550
  12      -30.875480    -30.875480
  13      -17.446764    -17.446764
  14      -17.405758    -17.405758
  15      -16.916886    -16.916886
  16      -16.909363    -16.909363
  17      -16.398122    -16.398122
  18      -16.363483    -16.363483
  19      -15.966112    -15.966112
  20      -15.963556    -15.963556
  21      -15.884378    -15.884378
  22      -15.875658    -15.875658
  23       -4.974668     -4.974668
  24       -4.837734     -4.837734
  25       -4.385937     -4.385937
  26       -4.336907     -4.336907
  27       -3.648839     -3.648839
  28       -3.513497     -3.513497
  29       -3.206193     -3.206193
  30       -3.182773     -3.182773
  31       -2.980875     -2.980875
  32       -2.975116     -2.975116
  33       -2.507755     -2.507755
  34       -2.493652     -2.493652
  35       -2.338133     -2.338133
  36       -2.121430     -2.121430
  37       -2.043990     -2.043990
  38       -2.010949     -2.010949
  39       -1.958208     -1.958208
  40       -1.916809     -1.916809
  41       -1.900980     -1.900980
  42       -1.532152     -1.532152
  43       -1.375299     -1.375299
  44       -1.343213     -1.343213
  45       -1.149508     -1.149508
  46       -1.120058     -1.120058
  47       -1.110917     -1.110917
  48       -1.061927     -1.061927
  49       -0.928793     -0.928793
  50       -0.862482     -0.862482
  51       -0.609216     -0.609216
  52       -0.369822     -0.369822
  53        2.884341      2.884341
  54        2.935434      2.935434
  55        3.606204      3.606204
  56        3.637580      3.637580
  57        3.655238      3.655238
  58        3.660125      3.660125
  59        4.486653      4.486653
  60        4.606394      4.606394
  61        4.703836      4.703836
  62        4.824260      4.824260
  63        5.280764      5.280764
  64        5.378682      5.378682
  65        5.453764      5.453764
  66        5.729091      5.729091
  67        6.260000      6.260001
  68        6.579975      6.579975
  69        7.184914      7.182872
 
 -0.4000000E+00  0.0000000E+00  0.2000000E+00  0.1600000E-01