 running on    1 total cores
 distrk:  each k-point on    1 cores,    1 groups
 distr:  one band on    1 cores,    1 groups
 using from now: INCAR     
 vasp.5.3.3 18Dez12 (build Sep  7 2015 22:32:56) complex                        
  
 POSCAR found type information on POSCAR  Nb O 
 POSCAR found :  2 types and      14 ions
 LDA part: xc-table for Pade appr. of Perdew
 POSCAR, INCAR and KPOINTS ok, starting setup
 WARNING: small aliasing (wrap around) errors must be expected
 FFT: planning ...
 WAVECAR not read
 entering main loop
       N       E                     dE             d eps       ncg     rms          rms(c)
DAV:   1     0.113159653449E+04    0.11316E+04   -0.41411E+04 10852   0.114E+03
DAV:   2     0.385268561587E+02   -0.10931E+04   -0.10477E+04 11756   0.528E+02
DAV:   3    -0.144533187238E+03   -0.18306E+03   -0.17582E+03 17288   0.179E+02
DAV:   4    -0.152079519390E+03   -0.75463E+01   -0.75099E+01 16752   0.478E+01
DAV:   5    -0.152203577513E+03   -0.12406E+00   -0.12381E+00 17760   0.804E+00
DAV:   6    -0.152205740939E+03   -0.21634E-02   -0.21617E-02 17208   0.104E+00
DAV:   7    -0.152205809238E+03   -0.68300E-04   -0.68267E-04 14216   0.182E-01
DAV:   8    -0.152205811793E+03   -0.25547E-05   -0.25512E-05 10096   0.432E-02
DAV:   9    -0.152205812709E+03   -0.91653E-06   -0.91495E-06  9336   0.247E-02
DAV:  10    -0.152205813152E+03   -0.44248E-06   -0.44199E-06  8448   0.184E-02    0.846E+01
RMM:  11    -0.103804846348E+03    0.48401E+02   -0.18591E+02 13953   0.480E+01    0.310E+01
RMM:  12    -0.108867470011E+03   -0.50626E+01   -0.98593E+00 12949   0.198E+01    0.179E+01
RMM:  13    -0.118085231140E+03   -0.92178E+01   -0.90607E+00 12466   0.945E+00    0.101E+01
RMM:  14    -0.123664068981E+03   -0.55788E+01   -0.76036E+00 13004   0.996E+00    0.233E+00
RMM:  15    -0.125031193737E+03   -0.13671E+01   -0.21825E+00 12650   0.440E+00    0.152E+00
RMM:  16    -0.125605070167E+03   -0.57388E+00   -0.90236E-01 12512   0.350E+00    0.880E-01
RMM:  17    -0.125857108179E+03   -0.25204E+00   -0.61959E-01 12325   0.223E+00    0.420E-01
RMM:  18    -0.125861741348E+03   -0.46332E-02   -0.66383E-02 12249   0.124E+00    0.235E-01
RMM:  19    -0.125863439792E+03   -0.16984E-02   -0.19862E-02 12811   0.400E-01    0.107E-01
RMM:  20    -0.125863127584E+03    0.31221E-03   -0.20501E-03 10689   0.219E-01    0.765E-02
RMM:  21    -0.125863201974E+03   -0.74390E-04   -0.59609E-04  8939   0.136E-01
   1 F= -.12586320E+03 E0= -.12586432E+03  d E =-.125863E+03  mag=     0.0003
 curvature:   0.00 expect dE= 0.000E+00 dE for cont linesearch  0.000E+00
 trial: gam= 0.00000 g(F)=  0.162E-02 g(S)=  0.000E+00 ort = 0.000E+00 (trialstep = 0.100E+01)
 search vector abs. value=  0.162E-02
 bond charge predicted
       N       E                     dE             d eps       ncg     rms          rms(c)
DAV:   1    -0.125860338923E+03    0.27887E-02   -0.32743E-01 13063   0.348E+00    0.185E-01
RMM:   2    -0.125863224425E+03   -0.28855E-02   -0.33943E-02 15466   0.939E-01    0.320E-01
RMM:   3    -0.125863391981E+03   -0.16756E-03   -0.23000E-03 11399   0.292E-01    0.300E-01
RMM:   4    -0.125863383026E+03    0.89552E-05   -0.44256E-04  8032   0.149E-01
   2 F= -.12586338E+03 E0= -.12586448E+03  d E =-.181052E-03  mag=    -0.0000
 trial-energy change:   -0.000181  1 .order   -0.000208   -0.001624    0.001208
 step:   0.5735(harm=  0.5735)  dis= 0.00146  next Energy=  -125.863668 (dE=-0.466E-03)
 bond charge predicted
       N       E                     dE             d eps       ncg     rms          rms(c)
DAV:   1    -0.125863101431E+03    0.29055E-03   -0.65498E-02 12780   0.159E+00    0.890E-02
RMM:   2    -0.125863711140E+03   -0.60971E-03   -0.66221E-03 15000   0.412E-01    0.105E-01
RMM:   3    -0.125863702407E+03    0.87323E-05   -0.36977E-04  7820   0.144E-01    0.994E-02
RMM:   4    -0.125863719199E+03   -0.16791E-04   -0.69598E-05  6551   0.600E-02
   3 F= -.12586372E+03 E0= -.12586483E+03  d E =-.517224E-03  mag=     0.0001
 curvature:  -0.29 expect dE=-0.111E-03 dE for cont linesearch -0.393E-05
 ZBRENT: interpolating
 opt :   0.6204  next Energy=  -125.863723 (dE=-0.521E-03)
 bond charge predicted
       N       E                     dE             d eps       ncg     rms          rms(c)
DAV:   1    -0.125863663254E+03    0.39153E-04   -0.99991E-04 12493   0.185E-01    0.588E-02
RMM:   2    -0.125863668541E+03   -0.52873E-05   -0.96000E-05  6269   0.603E-02    0.202E-02
RMM:   3    -0.125863670544E+03   -0.20031E-05   -0.23886E-05  5680   0.499E-02    0.231E-02
RMM:   4    -0.125863671743E+03   -0.11987E-05   -0.97670E-06  5025   0.203E-02
   4 F= -.12586367E+03 E0= -.12586478E+03  d E =-.469769E-03  mag=     0.0000
 curvature:  -0.26 expect dE=-0.182E-03 dE for cont linesearch -0.211E-04
 ZBRENT: interpolating
 opt :   0.5871  next Energy=  -125.863720 (dE=-0.518E-03)
 bond charge predicted
       N       E                     dE             d eps       ncg     rms          rms(c)
DAV:   1    -0.125863674514E+03   -0.39693E-05   -0.32897E-04  9769   0.118E-01    0.181E-02
RMM:   2    -0.125863677707E+03   -0.31932E-05   -0.41343E-05  5679   0.435E-02    0.202E-02
RMM:   3    -0.125863678665E+03   -0.95815E-06   -0.10564E-05  5504   0.296E-02    0.107E-02
RMM:   4    -0.125863678747E+03   -0.82178E-07   -0.28611E-06  3466   0.139E-02
   5 F= -.12586368E+03 E0= -.12586479E+03  d E =-.476773E-03  mag=     0.0000
 curvature:  -0.01 expect dE=-0.610E-05 dE for cont linesearch -0.307E-07
 trial: gam= 0.34590 g(F)=  0.498E-03 g(S)=  0.000E+00 ort =-0.638E-04 (trialstep = 0.917E+00)
 search vector abs. value=  0.648E-03
 bond charge predicted
       N       E                     dE             d eps       ncg     rms          rms(c)
DAV:   1    -0.125863649583E+03    0.29082E-04   -0.14030E-01 12270   0.162E+00    0.624E-02
RMM:   2    -0.125864011886E+03   -0.36230E-03   -0.39738E-03 12260   0.379E-01    0.383E-02
RMM:   3    -0.125864023662E+03   -0.11775E-04   -0.47628E-04  7960   0.136E-01    0.395E-02
RMM:   4    -0.125864024486E+03   -0.82404E-06   -0.86382E-05  5964   0.844E-02
   6 F= -.12586402E+03 E0= -.12586512E+03  d E =-.345739E-03  mag=     0.0000
 trial-energy change:   -0.000346  1 .order   -0.000332   -0.000437   -0.000227
 step:   1.9082(harm=  1.9082)  dis= 0.00445  next Energy=  -125.864133 (dE=-0.454E-03)
 bond charge predicted
       N       E                     dE             d eps       ncg     rms          rms(c)
DAV:   1    -0.125863774280E+03    0.24938E-03   -0.16249E-01 12162   0.174E+00    0.695E-02
RMM:   2    -0.125864186896E+03   -0.41262E-03   -0.46473E-03 12443   0.413E-01    0.483E-02
RMM:   3    -0.125864193854E+03   -0.69575E-05   -0.52656E-04  8191   0.131E-01    0.468E-02
RMM:   4    -0.125864191004E+03    0.28491E-05   -0.98181E-05  6252   0.888E-02
   7 F= -.12586419E+03 E0= -.12586527E+03  d E =-.512257E-03  mag=     0.0000
 curvature:  -1.30 expect dE=-0.758E-03 dE for cont linesearch -0.137E-04
 trial: gam= 0.62751 g(F)=  0.583E-03 g(S)=  0.000E+00 ort = 0.827E-04 (trialstep = 0.767E+00)
 search vector abs. value=  0.942E-03
 bond charge predicted
       N       E                     dE             d eps       ncg     rms          rms(c)
DAV:   1    -0.125863312294E+03    0.88156E-03   -0.10216E-01 12202   0.205E+00    0.977E-02
RMM:   2    -0.125864291606E+03   -0.97931E-03   -0.11287E-02 15224   0.500E-01    0.604E-02
RMM:   3    -0.125864322575E+03   -0.30969E-04   -0.74259E-04  8806   0.192E-01    0.585E-02
RMM:   4    -0.125864331748E+03   -0.91734E-05   -0.12988E-04  6877   0.809E-02
   8 F= -.12586433E+03 E0= -.12586544E+03  d E =-.140744E-03  mag=     0.0000
 trial-energy change:   -0.000141  1 .order   -0.000105   -0.000487    0.000277
 step:   0.4891(harm=  0.4891)  dis= 0.00119  next Energy=  -125.864346 (dE=-0.155E-03)
 bond charge predicted
       N       E                     dE             d eps       ncg     rms          rms(c)
DAV:   1    -0.125864220671E+03    0.10190E-03   -0.13928E-02 12522   0.758E-01    0.266E-02
RMM:   2    -0.125864369838E+03   -0.14917E-03   -0.16345E-03 12219   0.179E-01    0.102E-02
RMM:   3    -0.125864349670E+03    0.20168E-04   -0.94856E-05  6574   0.103E-01    0.269E-02
RMM:   4    -0.125864353394E+03   -0.37244E-05   -0.31072E-05  5818   0.331E-02
   9 F= -.12586435E+03 E0= -.12586545E+03  d E =-.162390E-03  mag=    -0.0000
 curvature:  -0.36 expect dE=-0.219E-04 dE for cont linesearch -0.160E-04
 ZBRENT: interpolating
 opt :   0.5895  next Energy=  -125.864364 (dE=-0.173E-03)
 bond charge predicted
       N       E                     dE             d eps       ncg     rms          rms(c)
DAV:   1    -0.125864341993E+03    0.76773E-05   -0.17507E-03 12727   0.272E-01    0.234E-02
RMM:   2    -0.125864355183E+03   -0.13190E-04   -0.16384E-04  6901   0.627E-02    0.712E-03
RMM:   3    -0.125864355968E+03   -0.78454E-06   -0.23075E-05  5550   0.525E-02    0.736E-03
RMM:   4    -0.125864356806E+03   -0.83812E-06   -0.78018E-06  5003   0.160E-02
  10 F= -.12586436E+03 E0= -.12586546E+03  d E =-.165801E-03  mag=    -0.0000
 curvature:  -0.23 expect dE=-0.106E-04 dE for cont linesearch -0.164E-05
 ZBRENT: interpolating
 opt :   0.5608  next Energy=  -125.864358 (dE=-0.167E-03)
 bond charge predicted
       N       E                     dE             d eps       ncg     rms          rms(c)
DAV:   1    -0.125864353101E+03    0.28664E-05   -0.10984E-04  6539   0.819E-02    0.946E-03
RMM:   2    -0.125864355864E+03   -0.27625E-05   -0.30945E-05  5481   0.518E-02    0.506E-03
RMM:   3    -0.125864356910E+03   -0.10461E-05   -0.10140E-05  5302   0.218E-02    0.294E-03
RMM:   4    -0.125864357221E+03   -0.31112E-06   -0.30405E-06  4139   0.178E-02
  11 F= -.12586436E+03 E0= -.12586546E+03  d E =-.166216E-03  mag=     0.0000
 curvature:  -0.17 expect dE=-0.746E-05 dE for cont linesearch -0.219E-05
 ZBRENT: interpolating
 opt :   0.5774  next Energy=  -125.864357 (dE=-0.166E-03)
 bond charge predicted
       N       E                     dE             d eps       ncg     rms          rms(c)
DAV:   1    -0.125864356618E+03    0.29209E-06   -0.32683E-05  6172   0.411E-02    0.359E-03
RMM:   2    -0.125864357064E+03   -0.44628E-06   -0.56193E-06  4534   0.200E-02    0.182E-03
RMM:   3    -0.125864357208E+03   -0.14420E-06   -0.15218E-06  3768   0.107E-02    0.867E-04
RMM:   4    -0.125864357227E+03   -0.18841E-07   -0.32671E-07  2108   0.810E-03
  12 F= -.12586436E+03 E0= -.12586546E+03  d E =-.166223E-03  mag=     0.0000
 curvature:  -0.04 expect dE=-0.154E-05 dE for cont linesearch -0.231E-06
 ZBRENT: bisectioning
 opt :   0.5691  next Energy=  -125.864358 (dE=-0.167E-03)
 bond charge predicted
       N       E                     dE             d eps       ncg     rms          rms(c)
DAV:   1    -0.125864357211E+03   -0.25429E-08   -0.73155E-06  6027   0.213E-02    0.204E-03
RMM:   2    -0.125864357319E+03   -0.10868E-06   -0.13888E-06  3482   0.107E-02    0.115E-03
RMM:   3    -0.125864357323E+03   -0.30996E-08   -0.10593E-07  1403   0.587E-03    0.697E-04
RMM:   4    -0.125864357321E+03    0.18590E-08   -0.45599E-08   668   0.591E-03
  13 F= -.12586436E+03 E0= -.12586546E+03  d E =-.166316E-03  mag=    -0.0000
 curvature:  -0.10 expect dE=-0.415E-05 dE for cont linesearch -0.472E-06
 ZBRENT: interpolating
 opt :   0.5729  next Energy=  -125.864357 (dE=-0.166E-03)
 bond charge predicted
       N       E                     dE             d eps       ncg     rms          rms(c)
DAV:   1    -0.125864357389E+03   -0.66108E-07   -0.99735E-07  5867   0.970E-03    0.105E-03
RMM:   2    -0.125864357372E+03    0.16946E-07   -0.59531E-08   725   0.443E-03    0.600E-04
RMM:   3    -0.125864357360E+03    0.11929E-07   -0.32744E-09   419   0.414E-03    0.194E-04
RMM:   4    -0.125864357357E+03    0.28904E-08   -0.10891E-09   303   0.423E-03
  14 F= -.12586436E+03 E0= -.12586546E+03  d E =-.166352E-03  mag=    -0.0000
 curvature:  -0.03 expect dE=-0.928E-06 dE for cont linesearch -0.931E-07
 ZBRENT: interpolating
 opt :   0.5712  next Energy=  -125.864357 (dE=-0.166E-03)
 bond charge predicted
       N       E                     dE             d eps       ncg     rms          rms(c)
DAV:   1    -0.125864357415E+03   -0.55386E-07   -0.19561E-07  5897   0.585E-03    0.609E-04
RMM:   2    -0.125864357408E+03    0.73851E-08    0.00000E+00   305   0.183E-03    0.376E-04
RMM:   3    -0.125864357401E+03    0.63756E-08    0.00000E+00   228   0.197E-03    0.664E-05
RMM:   4    -0.125864357401E+03   -0.56389E-10    0.00000E+00   207   0.199E-03
  15 F= -.12586436E+03 E0= -.12586546E+03  d E =-.166397E-03  mag=    -0.0000
 curvature:  -0.01 expect dE=-0.549E-06 dE for cont linesearch -0.495E-08
 ZBRENT: interpolating
 opt :   0.5716  next Energy=  -125.864357 (dE=-0.166E-03)
 bond charge predicted
       N       E                     dE             d eps       ncg     rms          rms(c)
DAV:   1    -0.125864357410E+03   -0.84365E-08   -0.43756E-08  5832   0.223E-03    0.342E-04
RMM:   2    -0.125864357409E+03    0.97134E-09    0.00000E+00   249   0.905E-04    0.204E-04
RMM:   3    -0.125864357409E+03    0.32014E-09    0.00000E+00   184   0.917E-04    0.211E-05
RMM:   4    -0.125864357408E+03    0.16917E-09    0.00000E+00   173   0.920E-04
  16 F= -.12586436E+03 E0= -.12586546E+03  d E =-.166404E-03  mag=    -0.0000
 curvature:  -0.01 expect dE=-0.387E-06 dE for cont linesearch -0.127E-09
 trial: gam= 0.13083 g(F)=  0.344E-04 g(S)=  0.000E+00 ort =-0.327E-05 (trialstep = 0.728E+00)
 search vector abs. value=  0.497E-04
 reached required accuracy - stopping structural energy minimisation
