 vasp.5.3.3 18Dez12 (build Sep  7 2015 22:32:56) complex                        
  
 executed on             LinuxIFC date 2022.12.22  15:34:18
 running on    1 total cores
 distrk:  each k-point on    1 cores,    1 groups
 distr:  one band on NCORES_PER_BAND=   1 cores,    1 groups


--------------------------------------------------------------------------------------------------------


 INCAR:
 POTCAR:    PAW_PBE Nb_pv 08Apr2002               
 POTCAR:    PAW_PBE O 08Apr2002                   
 POTCAR:    PAW_PBE Nb_pv 08Apr2002               
   VRHFIN =Nb: 4p5s4d                                                           
   LEXCH  = PE                                                                  
   EATOM  =  1043.3917 eV,   76.6871 Ry                                         
                                                                                
   TITEL  = PAW_PBE Nb_pv 08Apr2002                                             
   LULTRA =        F    use ultrasoft PP ?                                      
   IUNSCR =        1    unscreen: 0-lin 1-nonlin 2-no                           
   RPACOR =    2.200    partial core radius                                     
   POMASS =   92.000; ZVAL   =   11.000    mass and valenz                      
   RCORE  =    2.750    outmost cutoff radius                                   
   RWIGS  =    2.840; RWIGS  =    1.503    wigner-seitz radius (au A)           
   ENMAX  =  208.608; ENMIN  =  156.456 eV                                      
   RCLOC  =    2.201    cutoff for local pot                                    
   LCOR   =        T    correct aug charges                                     
   LPAW   =        T    paw PP                                                  
   EAUG   =  355.067                                                            
   DEXC   =    0.000                                                            
   RMAX   =    2.804    core radius for proj-oper                               
   RAUG   =    1.300    factor for augmentation sphere                          
   RDEP   =    2.776    radius for radial grids                                 
   RDEPT  =    2.198    core radius for aug-charge                              
                                                                                
   Atomic configuration                                                         
   11 entries                                                                   
     n  l   j            E        occ.                                          
     1  0  0.50    -18805.2456   2.0000                                         
     2  0  0.50     -2630.2869   2.0000                                         
     2  1  1.50     -2348.4045   6.0000                                         
     3  0  0.50      -438.8756   2.0000                                         
     3  1  1.50      -346.7587   6.0000                                         
     3  2  2.50      -196.2559  10.0000                                         
     4  0  0.50       -58.3859   2.0000                                         
     4  1  1.50       -34.5141   6.0000                                         
     4  2  2.50        -3.0408   4.0000                                         
     5  0  0.50        -3.9816   1.0000                                         
     4  3  2.50        -1.3606   0.0000                                         
   Description                                                                  
     l       E           TYP  RCUT    TYP  RCUT                                 
     1    -34.5140617     23  2.600                                             
     1     -1.3605826     23  2.600                                             
     2     -3.0407924     23  2.600                                             
     2     -1.4463597     23  2.600                                             
     0     -3.9816219     23  2.750                                             
     0     20.4087390     23  2.750                                             
  local pseudopotential read in
  partial core-charges read in
  partial kinetic energy density read in
  atomic valenz-charges read in
  non local Contribution for L=           1  read in
    real space projection operators read in
  non local Contribution for L=           1  read in
    real space projection operators read in
  non local Contribution for L=           2  read in
    real space projection operators read in
  non local Contribution for L=           2  read in
    real space projection operators read in
  non local Contribution for L=           0  read in
    real space projection operators read in
  non local Contribution for L=           0  read in
    real space projection operators read in
    PAW grid and wavefunctions read in
 
   number of l-projection  operators is LMAX  =           6
   number of lm-projection operators is LMMAX =          18
 
 POTCAR:    PAW_PBE O 08Apr2002                   
   VRHFIN =O: s2p4                                                              
   LEXCH  = PE                                                                  
   EATOM  =   432.3788 eV,   31.7789 Ry                                         
                                                                                
   TITEL  = PAW_PBE O 08Apr2002                                                 
   LULTRA =        F    use ultrasoft PP ?                                      
   IUNSCR =        1    unscreen: 0-lin 1-nonlin 2-no                           
   RPACOR =    1.200    partial core radius                                     
   POMASS =   16.000; ZVAL   =    6.000    mass and valenz                      
   RCORE  =    1.520    outmost cutoff radius                                   
   RWIGS  =    1.550; RWIGS  =    0.820    wigner-seitz radius (au A)           
   ENMAX  =  400.000; ENMIN  =  300.000 eV                                      
   ICORE  =        2    local potential                                         
   LCOR   =        T    correct aug charges                                     
   LPAW   =        T    paw PP                                                  
   EAUG   =  605.392                                                            
   DEXC   =    0.000                                                            
   RMAX   =    1.553    core radius for proj-oper                               
   RAUG   =    1.300    factor for augmentation sphere                          
   RDEP   =    1.550    radius for radial grids                                 
   RDEPT  =    1.329    core radius for aug-charge                              
                                                                                
   Atomic configuration                                                         
    4 entries                                                                   
     n  l   j            E        occ.                                          
     1  0  0.50      -514.6923   2.0000                                         
     2  0  0.50       -23.9615   2.0000                                         
     2  1  0.50        -9.0305   4.0000                                         
     3  2  1.50        -9.5241   0.0000                                         
   Description                                                                  
     l       E           TYP  RCUT    TYP  RCUT                                 
     0    -23.9615318     23  1.200                                             
     0     -9.5240782     23  1.200                                             
     1     -9.0304911     23  1.520                                             
     1      8.1634956     23  1.520                                             
     2     -9.5240782      7  1.500                                             
  local pseudopotential read in
  partial core-charges read in
  partial kinetic energy density read in
  kinetic energy density of atom read in
  atomic valenz-charges read in
  non local Contribution for L=           0  read in
    real space projection operators read in
  non local Contribution for L=           0  read in
    real space projection operators read in
  non local Contribution for L=           1  read in
    real space projection operators read in
  non local Contribution for L=           1  read in
    real space projection operators read in
    PAW grid and wavefunctions read in
 
   number of l-projection  operators is LMAX  =           4
   number of lm-projection operators is LMMAX =           8
 
  PAW_PBE Nb_pv 08Apr2002               :
 energy of atom  1       EATOM=-1043.3917
 kinetic energy error for atom=    0.0050 (will be added to EATOM!!)
  PAW_PBE O 08Apr2002                   :
 energy of atom  2       EATOM= -432.3788
 kinetic energy error for atom=    0.3782 (will be added to EATOM!!)
 
 
 POSCAR: Nb4 O10                                 
  positions in direct lattice
  No initial velocities read in
 exchange correlation table for  LEXCH =        8
   RHO(1)=    0.500       N(1)  =     2000
   RHO(2)=  100.500       N(2)  =     4000
 


--------------------------------------------------------------------------------------------------------


 ion  position               nearest neighbor table
   1  0.854  0.000  0.933-   5 1.80   7 1.93   9 2.02   9 2.02   8 2.23   5 2.26   2 3.39   2 3.39

   2  0.646  0.500  0.067-   6 1.80  12 1.93   8 2.02   8 2.02   9 2.23   6 2.26   1 3.39   1 3.39

   3  0.354  0.500  0.933-  10 1.80  12 1.93  14 2.02  14 2.02  13 2.23  10 2.26   4 3.39   4 3.39

   4  0.146  0.000  0.067-  11 1.80   7 1.93  13 2.02  13 2.02  14 2.23  11 2.26   3 3.39   3 3.39

   5  0.852  0.000  0.489-   1 1.80   1 2.26
   6  0.648  0.500  0.511-   2 1.80   2 2.26
   7  0.000  0.000  0.000-   1 1.93   4 1.93
   8  0.685  0.000  0.003-   2 2.02   2 2.02   1 2.23
   9  0.815  0.500  0.997-   1 2.02   1 2.02   2 2.23
  10  0.352  0.500  0.489-   3 1.80   3 2.26
  11  0.148  0.000  0.511-   4 1.80   4 2.26
  12  0.500  0.500  0.000-   2 1.93   3 1.93
  13  0.185  0.500  0.003-   4 2.02   4 2.02   3 2.23
  14  0.315  0.000  0.997-   3 2.02   3 2.02   4 2.23
 
  LATTYP: Found a simple monoclinic cell.
 ALAT       =    13.6570737603
 B/A-ratio  =     0.2835695309
 C/A-ratio  =     1.1214833860
 COS(beta)  =    -0.9671598041
  
  Lattice vectors:
  
 A1 = (   0.0000000000, -13.0394500000,   4.0605920000)
 A2 = (  -3.8727300000,   0.0000000000,   0.0000000000)
 A3 = (   0.0000000000,  12.9858300000,  -8.1211840000)


Analysis of symmetry for initial positions (statically):
=====================================================================
 Subroutine PRICEL returns following result:
 
  LATTYP: Found a base centered monoclinic cell.
 ALAT       =    13.0930700000
 B/A-ratio  =     0.2957847166
 C/A-ratio  =     1.0430765100
 COS(beta)  =    -0.9155651686
  
  Lattice vectors:
  
 A1 = (   1.9363650000,   6.5465350000,   0.0000000000)
 A2 = (  -1.9363650000,   6.5465350000,   0.0000000000)
 A3 = (  -0.0000000000, -13.0394500000,   4.0605920000)
 
   2 primitive cells build up your supercell.
 

 Routine SETGRP: Setting up the symmetry group for a 
 simple monoclinic supercell.


 Subroutine GETGRP returns: Found  4 space group operations
 (whereof  4 operations were pure point group operations)
 out of a pool of  4 trial point group operations.


The static configuration has the point symmetry C_2h.


Analysis of symmetry for dynamics (positions and initial velocities):
=====================================================================
 Subroutine PRICEL returns following result:
 
  LATTYP: Found a base centered monoclinic cell.
 ALAT       =    13.0930700000
 B/A-ratio  =     0.2957847166
 C/A-ratio  =     1.0430765100
 COS(beta)  =    -0.9155651686
  
  Lattice vectors:
  
 A1 = (   1.9363650000,   6.5465350000,   0.0000000000)
 A2 = (  -1.9363650000,   6.5465350000,   0.0000000000)
 A3 = (  -0.0000000000, -13.0394500000,   4.0605920000)
 
   2 primitive cells build up your supercell.
 

 Routine SETGRP: Setting up the symmetry group for a 
 simple monoclinic supercell.


 Subroutine GETGRP returns: Found  4 space group operations
 (whereof  4 operations were pure point group operations)
 out of a pool of  4 trial point group operations.


The dynamic configuration has the point symmetry C_2h.


Analysis of constrained symmetry for selective dynamics:
=====================================================================
 Subroutine PRICEL returns following result:
 
  LATTYP: Found a base centered monoclinic cell.
 ALAT       =    13.0930700000
 B/A-ratio  =     0.2957847166
 C/A-ratio  =     1.0430765100
 COS(beta)  =    -0.9155651686
  
  Lattice vectors:
  
 A1 = (   1.9363650000,   6.5465350000,   0.0000000000)
 A2 = (  -1.9363650000,   6.5465350000,   0.0000000000)
 A3 = (  -0.0000000000, -13.0394500000,   4.0605920000)
 
   2 primitive cells build up your supercell.
 

 Routine SETGRP: Setting up the symmetry group for a 
 simple monoclinic supercell.


 Subroutine GETGRP returns: Found  4 space group operations
 (whereof  4 operations were pure point group operations)
 out of a pool of  4 trial point group operations.


The constrained configuration has the point symmetry C_2h.


Analysis of magnetic symmetry:
=====================================================================

 Subroutine MAGSYM returns: Found  4 space group operations
 (whereof  4 operations were pure point group operations)
 out of a pool of  4 trial space group operations
 (whereof  4 operations were pure point group operations)
 and found also     2 'primitive' translations


The magnetic configuration has the point symmetry C_2h.


 irot  :   1
 --------------------------------------------------------------------
 isymop:   1   0   0
           0   1   0
           0   0   1

 gtrans:     0.0000000     0.0000000     0.0000000

 ptrans:     0.0000000     0.0000000     0.0000000
 rotmap:
 (   1->   1)  (   2->   2)  (   3->   3)  (   4->   4)  (   5->   5) 
 (   6->   6)  (   7->   7)  (   8->   8)  (   9->   9)  (  10->  10) 
 (  11->  11)  (  12->  12)  (  13->  13)  (  14->  14) 

 ptrans:     0.5000000     0.5000000     0.0000000
 rotmap:
 (   1->   3)  (   2->   4)  (   3->   1)  (   4->   2)  (   5->  10) 
 (   6->  11)  (   7->  12)  (   8->  13)  (   9->  14)  (  10->   5) 
 (  11->   6)  (  12->   7)  (  13->   8)  (  14->   9) 


 irot  :   2
 --------------------------------------------------------------------
 isymop:  -1   0   0
           0  -1   0
           0   0  -1

 gtrans:     0.0000000     0.0000000     0.0000000

 ptrans:     0.0000000     0.0000000     0.0000000
 rotmap:
 (   1->   4)  (   2->   3)  (   3->   2)  (   4->   1)  (   5->  11) 
 (   6->  10)  (   7->   7)  (   8->  14)  (   9->  13)  (  10->   6) 
 (  11->   5)  (  12->  12)  (  13->   9)  (  14->   8) 

 ptrans:     0.5000000     0.5000000     0.0000000
 rotmap:
 (   1->   2)  (   2->   1)  (   3->   4)  (   4->   3)  (   5->   6) 
 (   6->   5)  (   7->  12)  (   8->   9)  (   9->   8)  (  10->  11) 
 (  11->  10)  (  12->   7)  (  13->  14)  (  14->  13) 


 irot  :   3
 --------------------------------------------------------------------
 isymop:  -1   0   0
           0   1   0
           0   0  -1

 gtrans:     0.0000000     0.0000000     0.0000000

 ptrans:     0.0000000     0.0000000     0.0000000
 rotmap:
 (   1->   4)  (   2->   3)  (   3->   2)  (   4->   1)  (   5->  11) 
 (   6->  10)  (   7->   7)  (   8->  14)  (   9->  13)  (  10->   6) 
 (  11->   5)  (  12->  12)  (  13->   9)  (  14->   8) 

 ptrans:     0.5000000     0.5000000     0.0000000
 rotmap:
 (   1->   2)  (   2->   1)  (   3->   4)  (   4->   3)  (   5->   6) 
 (   6->   5)  (   7->  12)  (   8->   9)  (   9->   8)  (  10->  11) 
 (  11->  10)  (  12->   7)  (  13->  14)  (  14->  13) 


 irot  :   4
 --------------------------------------------------------------------
 isymop:   1   0   0
           0  -1   0
           0   0   1

 gtrans:     0.0000000     0.0000000     0.0000000

 ptrans:     0.0000000     0.0000000     0.0000000
 rotmap:
 (   1->   1)  (   2->   2)  (   3->   3)  (   4->   4)  (   5->   5) 
 (   6->   6)  (   7->   7)  (   8->   8)  (   9->   9)  (  10->  10) 
 (  11->  11)  (  12->  12)  (  13->  13)  (  14->  14) 

 ptrans:     0.5000000     0.5000000     0.0000000
 rotmap:
 (   1->   3)  (   2->   4)  (   3->   1)  (   4->   2)  (   5->  10) 
 (   6->  11)  (   7->  12)  (   8->  13)  (   9->  14)  (  10->   5) 
 (  11->   6)  (  12->   7)  (  13->   8)  (  14->   9) 
 
 
 KPOINTS: K-Points                                

Automatic generation of k-mesh.
Space group operators:
 irot       det(A)        alpha          n_x          n_y          n_z        tau_x        tau_y        tau_z
    1     1.000000     0.000001     1.000000     0.000000     0.000000     0.000000     0.000000     0.000000
    2    -1.000000     0.000001     1.000000     0.000000     0.000000     0.000000     0.000000     0.000000
    3     1.000000   180.000000     1.000000     0.000000     0.000000     0.000000     0.000000     0.000000
    4    -1.000000   180.000000     1.000000     0.000000     0.000000     0.000000     0.000000     0.000000
 
 Subroutine IBZKPT returns following result:
 ===========================================
 
 Found     39 irreducible k-points:
 
 Following reciprocal coordinates:
            Coordinates               Weight
  0.000000  0.000000  0.000000      1.000000
  0.200000  0.000000  0.000000      2.000000
  0.400000  0.000000  0.000000      2.000000
  0.000000  0.200000  0.000000      2.000000
  0.200000  0.200000  0.000000      4.000000
  0.400000  0.200000  0.000000      4.000000
  0.000000  0.400000  0.000000      2.000000
  0.200000  0.400000  0.000000      4.000000
  0.400000  0.400000  0.000000      4.000000
  0.000000  0.000000  0.200000      2.000000
  0.200000  0.000000  0.200000      2.000000
  0.400000  0.000000  0.200000      2.000000
 -0.400000  0.000000  0.200000      2.000000
 -0.200000  0.000000  0.200000      2.000000
  0.000000  0.200000  0.200000      4.000000
  0.200000  0.200000  0.200000      4.000000
  0.400000  0.200000  0.200000      4.000000
 -0.400000  0.200000  0.200000      4.000000
 -0.200000  0.200000  0.200000      4.000000
  0.000000  0.400000  0.200000      4.000000
  0.200000  0.400000  0.200000      4.000000
  0.400000  0.400000  0.200000      4.000000
 -0.400000  0.400000  0.200000      4.000000
 -0.200000  0.400000  0.200000      4.000000
  0.000000  0.000000  0.400000      2.000000
  0.200000  0.000000  0.400000      2.000000
  0.400000  0.000000  0.400000      2.000000
 -0.400000  0.000000  0.400000      2.000000
 -0.200000  0.000000  0.400000      2.000000
  0.000000  0.200000  0.400000      4.000000
  0.200000  0.200000  0.400000      4.000000
  0.400000  0.200000  0.400000      4.000000
 -0.400000  0.200000  0.400000      4.000000
 -0.200000  0.200000  0.400000      4.000000
  0.000000  0.400000  0.400000      4.000000
  0.200000  0.400000  0.400000      4.000000
  0.400000  0.400000  0.400000      4.000000
 -0.400000  0.400000  0.400000      4.000000
 -0.200000  0.400000  0.400000      4.000000
 
 Following cartesian coordinates:
            Coordinates               Weight
  0.000000  0.000000  0.000000      1.000000
  0.000000  0.015275 -0.000202      2.000000
  0.000000  0.030551 -0.000403      2.000000
  0.051643  0.000000  0.000000      2.000000
  0.051643  0.015275 -0.000202      4.000000
  0.051643  0.030551 -0.000403      4.000000
  0.103286  0.000000  0.000000      2.000000
  0.103286  0.015275 -0.000202      4.000000
  0.103286  0.030551 -0.000403      4.000000
  0.000000  0.000000 -0.049254      2.000000
  0.000000  0.015275 -0.049456      2.000000
  0.000000  0.030551 -0.049657      2.000000
  0.000000 -0.030551 -0.048850      2.000000
  0.000000 -0.015275 -0.049052      2.000000
  0.051643  0.000000 -0.049254      4.000000
  0.051643  0.015275 -0.049456      4.000000
  0.051643  0.030551 -0.049657      4.000000
  0.051643 -0.030551 -0.048850      4.000000
  0.051643 -0.015275 -0.049052      4.000000
  0.103286  0.000000 -0.049254      4.000000
  0.103286  0.015275 -0.049456      4.000000
  0.103286  0.030551 -0.049657      4.000000
  0.103286 -0.030551 -0.048850      4.000000
  0.103286 -0.015275 -0.049052      4.000000
  0.000000  0.000000 -0.098508      2.000000
  0.000000  0.015275 -0.098710      2.000000
  0.000000  0.030551 -0.098911      2.000000
  0.000000 -0.030551 -0.098104      2.000000
  0.000000 -0.015275 -0.098306      2.000000
  0.051643  0.000000 -0.098508      4.000000
  0.051643  0.015275 -0.098710      4.000000
  0.051643  0.030551 -0.098911      4.000000
  0.051643 -0.030551 -0.098104      4.000000
  0.051643 -0.015275 -0.098306      4.000000
  0.103286  0.000000 -0.098508      4.000000
  0.103286  0.015275 -0.098710      4.000000
  0.103286  0.030551 -0.098911      4.000000
  0.103286 -0.030551 -0.098104      4.000000
  0.103286 -0.015275 -0.098306      4.000000
 


--------------------------------------------------------------------------------------------------------




 Dimension of arrays:
   k-points           NKPTS =     39   k-points in BZ     NKDIM =     39   number of bands    NBANDS=     69
   number of dos      NEDOS =    301   number of ions     NIONS =     14
   non local maximal  LDIM  =      6   non local SUM 2l+1 LMDIM =     18
   total plane-waves  NPLWV =  21600
   max r-space proj   IRMAX =      1   max aug-charges    IRDMAX=   6658
   dimension x,y,z NGX =    60 NGY =   18 NGZ =   20
   dimension x,y,z NGXF=   120 NGYF=   36 NGZF=   40
   support grid    NGXF=   120 NGYF=   36 NGZF=   40
   ions per type =               4  10
 NGX,Y,Z   is equivalent  to a cutoff of   7.62,  7.73,  8.19 a.u.
 NGXF,Y,Z  is equivalent  to a cutoff of  15.24, 15.45, 16.38 a.u.


 I would recommend the setting:
   dimension x,y,z NGX =    60 NGY =   18 NGZ =   19
 SYSTEM =  Crystal                                 
 POSCAR =  Nb4 O10                                 

 Startparameter for this run:
   NWRITE =      2    write-flag & timer
   PREC   = normal    normal or accurate (medium, high low for compatibility)
   ISTART =      0    job   : 0-new  1-cont  2-samecut
   ICHARG =      2    charge: 1-file 2-atom 10-const
   ISPIN  =      2    spin polarized calculation?
   LNONCOLLINEAR =      F non collinear calculations
   LSORBIT =      F    spin-orbit coupling
   INIWAV =      1    electr: 0-lowe 1-rand  2-diag
   LASPH  =      F    aspherical Exc in radial PAW
   METAGGA=      F    non-selfconsistent MetaGGA calc.

 Electronic Relaxation 1
   ENCUT  =  350.0 eV  25.72 Ry    5.07 a.u.  19.97  5.91  6.19*2*pi/ulx,y,z
   ENINI  =  350.0     initial cutoff
   ENAUG  =  605.4 eV  augmentation charge cutoff
   NELM   =     60;   NELMIN=  4; NELMDL=-10     # of ELM steps 
   EDIFF  = 0.1E-03   stopping-criterion for ELM
   LREAL  =      F    real-space projection
   NLSPLINE    = F    spline interpolate recip. space projectors
   LCOMPAT=      F    compatible to vasp.4.4
   GGA_COMPAT  = T    GGA compatible to vasp.4.4-vasp.4.6
   LMAXPAW     = -100 max onsite density
   LMAXMIX     =    2 max onsite mixed and CHGCAR
   VOSKOWN=      0    Vosko Wilk Nusair interpolation
   ROPT   =    0.00000   0.00000
 Ionic relaxation
   EDIFFG = -.1E-01   stopping-criterion for IOM
   NSW    =    300    number of steps for IOM
   NBLOCK =      1;   KBLOCK =    300    inner block; outer block 
   IBRION =      2    ionic relax: 0-MD 1-quasi-New 2-CG
   NFREE  =      1    steps in history (QN), initial steepest desc. (CG)
   ISIF   =      2    stress and relaxation
   IWAVPR =     11    prediction:  0-non 1-charg 2-wave 3-comb
   ISYM   =      2    0-nonsym 1-usesym 2-fastsym
   LCORR  =      T    Harris-Foulkes like correction to forces

   POTIM  = 0.5000    time-step for ionic-motion
   TEIN   =    0.0    initial temperature
   TEBEG  =    0.0;   TEEND  =   0.0 temperature during run
   SMASS  =  -3.00    Nose mass-parameter (am)
   estimated Nose-frequenzy (Omega)   =  0.10E-29 period in steps =****** mass=  -0.392E-26a.u.
   SCALEE = 1.0000    scale energy and forces
   NPACO  =    256;   APACO  = 16.0  distance and # of slots for P.C.
   PSTRESS=    0.0 pullay stress

  Mass of Ions in am
   POMASS =  92.00 16.00
  Ionic Valenz
   ZVAL   =  11.00  6.00
  Atomic Wigner-Seitz radii
   RWIGS  =  -1.00 -1.00
  virtual crystal weights 
   VCA    =   1.00  1.00
   NELECT =     104.0000    total number of electrons
   NUPDOWN=      -1.0000    fix difference up-down

 DOS related values:
   EMIN   =  10.00;   EMAX   =-10.00  energy-range for DOS
   EFERMI =   0.00
   ISMEAR =     2;   SIGMA  =   0.10  broadening in eV -4-tet -1-fermi 0-gaus

 Electronic relaxation 2 (details)
   IALGO  =     68    algorithm
   LDIAG  =      T    sub-space diagonalisation (order eigenvalues)
   LSUBROT=      T    optimize rotation matrix (better conditioning)
   TURBO    =      0    0=normal 1=particle mesh
   IRESTART =      0    0=no restart 2=restart with 2 vectors
   NREBOOT  =      0    no. of reboots
   NMIN     =      0    reboot dimension
   EREF     =   0.00    reference energy to select bands
   IMIX   =      4    mixing-type and parameters
     AMIX     =   0.40;   BMIX     =  1.00
     AMIX_MAG =   1.60;   BMIX_MAG =  1.00
     AMIN     =   0.10
     WC   =   100.;   INIMIX=   1;  MIXPRE=   1;  MAXMIX= -45

 Intra band minimization:
   WEIMIN = 0.0010     energy-eigenvalue tresh-hold
   EBREAK =  0.36E-06  absolut break condition
   DEPER  =   0.30     relativ break condition  

   TIME   =   0.40     timestep for ELM

  volume/ion in A,a.u.               =      14.71        99.25
  Fermi-wavevector in a.u.,A,eV,Ry     =   1.303777  2.463781 23.127646  1.699834
  Thomas-Fermi vector in A             =   2.434756
 
 Write flags
   LWAVE  =      F    write WAVECAR
   LCHARG =      F    write CHGCAR
   LVTOT  =      F    write LOCPOT, total local potential
   LVHAR  =      F    write LOCPOT, Hartree potential only
   LELF   =      F    write electronic localiz. function (ELF)
   LORBIT =      0    0 simple, 1 ext, 2 COOP (PROOUT)


 Dipole corrections
   LMONO  =      F    monopole corrections only (constant potential shift)
   LDIPOL =      F    correct potential (dipole corrections)
   IDIPOL =      0    1-x, 2-y, 3-z, 4-all directions 
   EPSILON=  1.0000000 bulk dielectric constant

 Exchange correlation treatment:
   GGA     =    --    GGA type
   LEXCH   =     8    internal setting for exchange type
   VOSKOWN=      0    Vosko Wilk Nusair interpolation
   LHFCALC =     F    Hartree Fock is set to
   LHFONE  =     F    Hartree Fock one center treatment
   AEXX    =    0.0000 exact exchange contribution

 Linear response parameters
   LEPSILON=     F    determine dielectric tensor
   LRPA    =     F    only Hartree local field effects (RPA)
   LNABLA  =     F    use nabla operator in PAW spheres
   LVEL    =     F    velocity operator in full k-point grid
   LINTERFAST=   F  fast interpolation
   KINTER  =     0    interpolate to denser k-point grid
   CSHIFT  =0.1000    complex shift for real part using Kramers Kronig
   OMEGAMAX=  -1.0    maximum frequency
   DEG_THRESHOLD= 0.2000000E-02 threshold for treating states as degnerate
   RTIME   =    0.100 relaxation time in fs

 Orbital magnetization related:
   ORBITALMAG=     F  switch on orbital magnetization
   LCHIMAG   =     F  perturbation theory with respect to B field
   DQ        =  0.001000  dq finite difference perturbation B field



--------------------------------------------------------------------------------------------------------


 conjugate gradient relaxation of ions
   using selective dynamics as specified on POSCAR
 charge density and potential will be updated during run
 spin polarized calculation
 RMM-DIIS sequential band-by-band and
  variant of blocked Davidson during initial phase
 perform sub-space diagonalisation
    before iterative eigenvector-optimisation
 modified Broyden-mixing scheme, WC =      100.0
 initial mixing is a Kerker type mixing with AMIX =  0.4000 and BMIX =      1.0000
 Hartree-type preconditioning will be used
 using additional bands           17
 reciprocal scheme for non local part
 use partial core corrections
 calculate Harris-corrections to forces 
   (improved forces if not selfconsistent)
 use gradient corrections 
 use of overlap-Matrix (Vanderbilt PP)
 Methfessel and Paxton  Order N= 2 SIGMA  =   0.10


--------------------------------------------------------------------------------------------------------


  energy-cutoff  :      350.00
  volume of cell :      205.90
      direct lattice vectors                 reciprocal lattice vectors
     0.000000000 13.093070000  0.000000000     0.000000000  0.076376281 -0.001008547
     3.872730000  0.000000000  0.000000000     0.258215781  0.000000000  0.000000000
     0.000000000 -0.053620000 -4.060592000     0.000000000  0.000000000 -0.246269509

  length of vectors
    13.093070000  3.872730000  4.060946010     0.076382940  0.258215781  0.246269509


 
 k-points in units of 2pi/SCALE and weight: K-Points                                
   0.00000000  0.00000000  0.00000000       0.008
   0.00000000  0.01527526 -0.00020171       0.016
   0.00000000  0.03055051 -0.00040342       0.016
   0.05164316  0.00000000  0.00000000       0.016
   0.05164316  0.01527526 -0.00020171       0.032
   0.05164316  0.03055051 -0.00040342       0.032
   0.10328631  0.00000000  0.00000000       0.016
   0.10328631  0.01527526 -0.00020171       0.032
   0.10328631  0.03055051 -0.00040342       0.032
   0.00000000  0.00000000 -0.04925390       0.016
   0.00000000  0.01527526 -0.04945561       0.016
   0.00000000  0.03055051 -0.04965732       0.016
   0.00000000 -0.03055051 -0.04885048       0.016
   0.00000000 -0.01527526 -0.04905219       0.016
   0.05164316  0.00000000 -0.04925390       0.032
   0.05164316  0.01527526 -0.04945561       0.032
   0.05164316  0.03055051 -0.04965732       0.032
   0.05164316 -0.03055051 -0.04885048       0.032
   0.05164316 -0.01527526 -0.04905219       0.032
   0.10328631  0.00000000 -0.04925390       0.032
   0.10328631  0.01527526 -0.04945561       0.032
   0.10328631  0.03055051 -0.04965732       0.032
   0.10328631 -0.03055051 -0.04885048       0.032
   0.10328631 -0.01527526 -0.04905219       0.032
   0.00000000  0.00000000 -0.09850780       0.016
   0.00000000  0.01527526 -0.09870951       0.016
   0.00000000  0.03055051 -0.09891122       0.016
   0.00000000 -0.03055051 -0.09810439       0.016
   0.00000000 -0.01527526 -0.09830609       0.016
   0.05164316  0.00000000 -0.09850780       0.032
   0.05164316  0.01527526 -0.09870951       0.032
   0.05164316  0.03055051 -0.09891122       0.032
   0.05164316 -0.03055051 -0.09810439       0.032
   0.05164316 -0.01527526 -0.09830609       0.032
   0.10328631  0.00000000 -0.09850780       0.032
   0.10328631  0.01527526 -0.09870951       0.032
   0.10328631  0.03055051 -0.09891122       0.032
   0.10328631 -0.03055051 -0.09810439       0.032
   0.10328631 -0.01527526 -0.09830609       0.032
 
 k-points in reciprocal lattice and weights: K-Points                                
   0.00000000  0.00000000  0.00000000       0.008
   0.20000000  0.00000000  0.00000000       0.016
   0.40000000  0.00000000  0.00000000       0.016
   0.00000000  0.20000000  0.00000000       0.016
   0.20000000  0.20000000  0.00000000       0.032
   0.40000000  0.20000000  0.00000000       0.032
   0.00000000  0.40000000  0.00000000       0.016
   0.20000000  0.40000000  0.00000000       0.032
   0.40000000  0.40000000  0.00000000       0.032
   0.00000000  0.00000000  0.20000000       0.016
   0.20000000  0.00000000  0.20000000       0.016
   0.40000000  0.00000000  0.20000000       0.016
  -0.40000000  0.00000000  0.20000000       0.016
  -0.20000000  0.00000000  0.20000000       0.016
   0.00000000  0.20000000  0.20000000       0.032
   0.20000000  0.20000000  0.20000000       0.032
   0.40000000  0.20000000  0.20000000       0.032
  -0.40000000  0.20000000  0.20000000       0.032
  -0.20000000  0.20000000  0.20000000       0.032
   0.00000000  0.40000000  0.20000000       0.032
   0.20000000  0.40000000  0.20000000       0.032
   0.40000000  0.40000000  0.20000000       0.032
  -0.40000000  0.40000000  0.20000000       0.032
  -0.20000000  0.40000000  0.20000000       0.032
   0.00000000  0.00000000  0.40000000       0.016
   0.20000000  0.00000000  0.40000000       0.016
   0.40000000  0.00000000  0.40000000       0.016
  -0.40000000  0.00000000  0.40000000       0.016
  -0.20000000  0.00000000  0.40000000       0.016
   0.00000000  0.20000000  0.40000000       0.032
   0.20000000  0.20000000  0.40000000       0.032
   0.40000000  0.20000000  0.40000000       0.032
  -0.40000000  0.20000000  0.40000000       0.032
  -0.20000000  0.20000000  0.40000000       0.032
   0.00000000  0.40000000  0.40000000       0.032
   0.20000000  0.40000000  0.40000000       0.032
   0.40000000  0.40000000  0.40000000       0.032
  -0.40000000  0.40000000  0.40000000       0.032
  -0.20000000  0.40000000  0.40000000       0.032
 
 position of ions in fractional coordinates (direct lattice) 
   0.85384000  0.00000000  0.93278400
   0.64616000  0.50000000  0.06721600
   0.35384000  0.50000000  0.93278400
   0.14616000  0.00000000  0.06721600
   0.85241700  0.00000000  0.48936600
   0.64758300  0.50000000  0.51063400
   0.00000000  0.00000000  0.00000000
   0.68503300  0.00000000  0.00308500
   0.81496700  0.50000000  0.99691500
   0.35241700  0.50000000  0.48936600
   0.14758300  0.00000000  0.51063400
   0.50000000  0.50000000  0.00000000
   0.18503300  0.50000000  0.00308500
   0.31496700  0.00000000  0.99691500
 
 position of ions in cartesian coordinates  (Angst):
   0.00000000 11.12937101 -3.78765525
   1.93636500  8.45661399 -0.27293675
   1.93636500  4.58283601 -3.78765525
   0.00000000  1.91007899 -0.27293675
   0.00000000 11.13451565 -1.98711566
   1.93636500  8.45146935 -2.07347634
   0.00000000  0.00000000  0.00000000
   0.00000000  8.96901960 -0.01252693
   1.93636500 10.61696540 -4.04806507
   1.93636500  4.58798065 -1.98711566
   0.00000000  1.90493435 -2.07347634
   1.93636500  6.54653500  0.00000000
   1.93636500  2.42248460 -0.01252693
   0.00000000  4.07043040 -4.04806507
 


--------------------------------------------------------------------------------------------------------


 k-point  1 :   0.0000 0.0000 0.0000  plane waves:    3069
 k-point  2 :   0.2000 0.0000 0.0000  plane waves:    3070
 k-point  3 :   0.4000 0.0000 0.0000  plane waves:    3060
 k-point  4 :   0.0000 0.2000 0.0000  plane waves:    3052
 k-point  5 :   0.2000 0.2000 0.0000  plane waves:    3064
 k-point  6 :   0.4000 0.2000 0.0000  plane waves:    3063
 k-point  7 :   0.0000 0.4000 0.0000  plane waves:    3054
 k-point  8 :   0.2000 0.4000 0.0000  plane waves:    3057
 k-point  9 :   0.4000 0.4000 0.0000  plane waves:    3054
 k-point 10 :   0.0000 0.0000 0.2000  plane waves:    3039
 k-point 11 :   0.2000 0.0000 0.2000  plane waves:    3054
 k-point 12 :   0.4000 0.0000 0.2000  plane waves:    3059
 k-point 13 :  -0.4000 0.0000 0.2000  plane waves:    3063
 k-point 14 :  -0.2000 0.0000 0.2000  plane waves:    3049
 k-point 15 :   0.0000 0.2000 0.2000  plane waves:    3058
 k-point 16 :   0.2000 0.2000 0.2000  plane waves:    3043
 k-point 17 :   0.4000 0.2000 0.2000  plane waves:    3052
 k-point 18 :  -0.4000 0.2000 0.2000  plane waves:    3051
 k-point 19 :  -0.2000 0.2000 0.2000  plane waves:    3057
 k-point 20 :   0.0000 0.4000 0.2000  plane waves:    3059
 k-point 21 :   0.2000 0.4000 0.2000  plane waves:    3066
 k-point 22 :   0.4000 0.4000 0.2000  plane waves:    3064
 k-point 23 :  -0.4000 0.4000 0.2000  plane waves:    3069
 k-point 24 :  -0.2000 0.4000 0.2000  plane waves:    3068
 k-point 25 :   0.0000 0.0000 0.4000  plane waves:    3040
 k-point 26 :   0.2000 0.0000 0.4000  plane waves:    3025
 k-point 27 :   0.4000 0.0000 0.4000  plane waves:    3039
 k-point 28 :  -0.4000 0.0000 0.4000  plane waves:    3049
 k-point 29 :  -0.2000 0.0000 0.4000  plane waves:    3049
 k-point 30 :   0.0000 0.2000 0.4000  plane waves:    3057
 k-point 31 :   0.2000 0.2000 0.4000  plane waves:    3071
 k-point 32 :   0.4000 0.2000 0.4000  plane waves:    3064
 k-point 33 :  -0.4000 0.2000 0.4000  plane waves:    3061
 k-point 34 :  -0.2000 0.2000 0.4000  plane waves:    3059
 k-point 35 :   0.0000 0.4000 0.4000  plane waves:    3082
 k-point 36 :   0.2000 0.4000 0.4000  plane waves:    3088
 k-point 37 :   0.4000 0.4000 0.4000  plane waves:    3081
 k-point 38 :  -0.4000 0.4000 0.4000  plane waves:    3077
 k-point 39 :  -0.2000 0.4000 0.4000  plane waves:    3079

 maximum and minimum number of plane-waves per node :      3088     3025

 maximum number of plane-waves:      3088
 maximum index in each direction: 
   IXMAX=   20   IYMAX=    5   IZMAX=    6
   IXMIN=  -20   IYMIN=   -6   IZMIN=   -6

 WARNING: aliasing errors must be expected set NGX to  82 to avoid them
 WARNING: aliasing errors must be expected set NGY to  24 to avoid them
 WARNING: aliasing errors must be expected set NGZ to  26 to avoid them
 aliasing errors are usually negligible using standard VASP settings
 and one can safely disregard these warnings

 serial   3D FFT for wavefunctions
 parallel 3D FFT for charge:
    minimum data exchange during FFTs selected (reduces bandwidth)


 total amount of memory used by VASP on root node   367132. kBytes
========================================================================

   base      :      30000. kBytes
   nonl-proj :      35376. kBytes
   fftplans  :       6180. kBytes
   grid      :      16139. kBytes
   one-center:        435. kBytes
   wavefun   :     279002. kBytes
 
 Broyden mixing: mesh for mixing (old mesh)
   NGX = 39   NGY = 11   NGZ = 13
  (NGX  =120   NGY  = 36   NGZ  = 40)
  gives a total of   5577 points

 initial charge density was supplied:
 charge density of overlapping atoms calculated
 number of electron     104.0000000 magnetization      14.0000000
 keeping initial charge density in first step


--------------------------------------------------------------------------------------------------------


 Maximum index for augmentation-charges         6271 (set IRDMAX)


--------------------------------------------------------------------------------------------------------


 First call to EWALD:  gamma=   0.300
 Maximum number of real-space cells 2x 4x 4
 Maximum number of reciprocal cells 5x 2x 2

 FEWALD executed in parallel
    FEWALD:  cpu time    0.00: real time    0.00


----------------------------------------- Iteration    1(   1)  ---------------------------------------


    POTLOK:  cpu time    0.30: real time    0.32
    SETDIJ:  cpu time    0.10: real time    0.11
     EDDAV:  cpu time   43.89: real time   43.93
       DOS:  cpu time    0.03: real time    0.03
    --------------------------------------------
      LOOP:  cpu time   44.33: real time   44.39

 eigenvalue-minimisations  : 10852
 total energy-change (2. order) : 0.1131597E+04  (-0.4141131E+04)
 number of electron     104.0000000 magnetization      14.0000000
 augmentation part      104.0000000 magnetization      14.0000000

 Free energy of the ion-electron system (eV)
  ---------------------------------------------------
  alpha Z        PSCENC =       532.73731502
  Ewald energy   TEWEN  =     -5591.05299967
  -1/2 Hartree   DENC   =     -2694.51245940
  -exchange  EXHF       =         0.00000000
  -V(xc)+E(xc)   XCENC  =       379.78669195
  PAW double counting   =      6806.52282042    -6760.64702266
  entropy T*S    EENTRO =        -0.00171347
  eigenvalues    EBANDS =       -34.78903095
  atomic energy  EATOM  =      8493.55293326
  ---------------------------------------------------
  free energy    TOTEN  =      1131.59653449 eV

  energy without entropy =     1131.59824797  energy(sigma->0) =     1131.59696286


--------------------------------------------------------------------------------------------------------




----------------------------------------- Iteration    1(   2)  ---------------------------------------


     EDDAV:  cpu time   46.57: real time   46.62
       DOS:  cpu time    0.03: real time    0.03
    --------------------------------------------
      LOOP:  cpu time   46.60: real time   46.65

 eigenvalue-minimisations  : 11756
 total energy-change (2. order) :-0.1093070E+04  (-0.1047672E+04)
 number of electron     104.0000000 magnetization      14.0000000
 augmentation part      104.0000000 magnetization      14.0000000

 Free energy of the ion-electron system (eV)
  ---------------------------------------------------
  alpha Z        PSCENC =       532.73731502
  Ewald energy   TEWEN  =     -5591.05299967
  -1/2 Hartree   DENC   =     -2694.51245940
  -exchange  EXHF       =         0.00000000
  -V(xc)+E(xc)   XCENC  =       379.78669195
  PAW double counting   =      6806.52282042    -6760.64702266
  entropy T*S    EENTRO =         0.00063377
  eigenvalues    EBANDS =     -1127.86105653
  atomic energy  EATOM  =      8493.55293326
  ---------------------------------------------------
  free energy    TOTEN  =        38.52685616 eV

  energy without entropy =       38.52622239  energy(sigma->0) =       38.52669772


--------------------------------------------------------------------------------------------------------




----------------------------------------- Iteration    1(   3)  ---------------------------------------


     EDDAV:  cpu time   63.28: real time   63.35
       DOS:  cpu time    0.03: real time    0.03
    --------------------------------------------
      LOOP:  cpu time   63.32: real time   63.38

 eigenvalue-minimisations  : 17288
 total energy-change (2. order) :-0.1830600E+03  (-0.1758170E+03)
 number of electron     104.0000000 magnetization      14.0000000
 augmentation part      104.0000000 magnetization      14.0000000

 Free energy of the ion-electron system (eV)
  ---------------------------------------------------
  alpha Z        PSCENC =       532.73731502
  Ewald energy   TEWEN  =     -5591.05299967
  -1/2 Hartree   DENC   =     -2694.51245940
  -exchange  EXHF       =         0.00000000
  -V(xc)+E(xc)   XCENC  =       379.78669195
  PAW double counting   =      6806.52282042    -6760.64702266
  entropy T*S    EENTRO =         0.00002886
  eigenvalues    EBANDS =     -1310.92049502
  atomic energy  EATOM  =      8493.55293326
  ---------------------------------------------------
  free energy    TOTEN  =      -144.53318724 eV

  energy without entropy =     -144.53321610  energy(sigma->0) =     -144.53319445


--------------------------------------------------------------------------------------------------------




----------------------------------------- Iteration    1(   4)  ---------------------------------------


     EDDAV:  cpu time   61.57: real time   61.64
       DOS:  cpu time    0.01: real time    0.01
    --------------------------------------------
      LOOP:  cpu time   61.58: real time   61.65

 eigenvalue-minimisations  : 16752
 total energy-change (2. order) :-0.7546332E+01  (-0.7509861E+01)
 number of electron     104.0000000 magnetization      14.0000000
 augmentation part      104.0000000 magnetization      14.0000000

 Free energy of the ion-electron system (eV)
  ---------------------------------------------------
  alpha Z        PSCENC =       532.73731502
  Ewald energy   TEWEN  =     -5591.05299967
  -1/2 Hartree   DENC   =     -2694.51245940
  -exchange  EXHF       =         0.00000000
  -V(xc)+E(xc)   XCENC  =       379.78669195
  PAW double counting   =      6806.52282042    -6760.64702266
  entropy T*S    EENTRO =        -0.00000000
  eigenvalues    EBANDS =     -1318.46679831
  atomic energy  EATOM  =      8493.55293326
  ---------------------------------------------------
  free energy    TOTEN  =      -152.07951939 eV

  energy without entropy =     -152.07951939  energy(sigma->0) =     -152.07951939


--------------------------------------------------------------------------------------------------------




----------------------------------------- Iteration    1(   5)  ---------------------------------------


     EDDAV:  cpu time   64.67: real time   64.74
       DOS:  cpu time    0.01: real time    0.01
    --------------------------------------------
      LOOP:  cpu time   64.68: real time   64.75

 eigenvalue-minimisations  : 17760
 total energy-change (2. order) :-0.1240581E+00  (-0.1238086E+00)
 number of electron     104.0000000 magnetization      14.0000000
 augmentation part      104.0000000 magnetization      14.0000000

 Free energy of the ion-electron system (eV)
  ---------------------------------------------------
  alpha Z        PSCENC =       532.73731502
  Ewald energy   TEWEN  =     -5591.05299967
  -1/2 Hartree   DENC   =     -2694.51245940
  -exchange  EXHF       =         0.00000000
  -V(xc)+E(xc)   XCENC  =       379.78669195
  PAW double counting   =      6806.52282042    -6760.64702266
  entropy T*S    EENTRO =        -0.00000000
  eigenvalues    EBANDS =     -1318.59085643
  atomic energy  EATOM  =      8493.55293326
  ---------------------------------------------------
  free energy    TOTEN  =      -152.20357751 eV

  energy without entropy =     -152.20357751  energy(sigma->0) =     -152.20357751


--------------------------------------------------------------------------------------------------------




----------------------------------------- Iteration    1(   6)  ---------------------------------------


     EDDAV:  cpu time   62.99: real time   63.06
       DOS:  cpu time    0.01: real time    0.01
    --------------------------------------------
      LOOP:  cpu time   63.00: real time   63.07

 eigenvalue-minimisations  : 17208
 total energy-change (2. order) :-0.2163426E-02  (-0.2161724E-02)
 number of electron     104.0000000 magnetization      14.0000000
 augmentation part      104.0000000 magnetization      14.0000000

 Free energy of the ion-electron system (eV)
  ---------------------------------------------------
  alpha Z        PSCENC =       532.73731502
  Ewald energy   TEWEN  =     -5591.05299967
  -1/2 Hartree   DENC   =     -2694.51245940
  -exchange  EXHF       =         0.00000000
  -V(xc)+E(xc)   XCENC  =       379.78669195
  PAW double counting   =      6806.52282042    -6760.64702266
  entropy T*S    EENTRO =        -0.00000000
  eigenvalues    EBANDS =     -1318.59301986
  atomic energy  EATOM  =      8493.55293326
  ---------------------------------------------------
  free energy    TOTEN  =      -152.20574094 eV

  energy without entropy =     -152.20574094  energy(sigma->0) =     -152.20574094


--------------------------------------------------------------------------------------------------------




----------------------------------------- Iteration    1(   7)  ---------------------------------------


     EDDAV:  cpu time   54.14: real time   54.20
       DOS:  cpu time    0.01: real time    0.01
    --------------------------------------------
      LOOP:  cpu time   54.15: real time   54.21

 eigenvalue-minimisations  : 14216
 total energy-change (2. order) :-0.6829965E-04  (-0.6826683E-04)
 number of electron     104.0000000 magnetization      14.0000000
 augmentation part      104.0000000 magnetization      14.0000000

 Free energy of the ion-electron system (eV)
  ---------------------------------------------------
  alpha Z        PSCENC =       532.73731502
  Ewald energy   TEWEN  =     -5591.05299967
  -1/2 Hartree   DENC   =     -2694.51245940
  -exchange  EXHF       =         0.00000000
  -V(xc)+E(xc)   XCENC  =       379.78669195
  PAW double counting   =      6806.52282042    -6760.64702266
  entropy T*S    EENTRO =        -0.00000000
  eigenvalues    EBANDS =     -1318.59308816
  atomic energy  EATOM  =      8493.55293326
  ---------------------------------------------------
  free energy    TOTEN  =      -152.20580924 eV

  energy without entropy =     -152.20580924  energy(sigma->0) =     -152.20580924


--------------------------------------------------------------------------------------------------------




----------------------------------------- Iteration    1(   8)  ---------------------------------------


     EDDAV:  cpu time   41.94: real time   41.99
       DOS:  cpu time    0.01: real time    0.01
    --------------------------------------------
      LOOP:  cpu time   41.95: real time   42.00

 eigenvalue-minimisations  : 10096
 total energy-change (2. order) :-0.2554652E-05  (-0.2551213E-05)
 number of electron     104.0000000 magnetization      14.0000000
 augmentation part      104.0000000 magnetization      14.0000000

 Free energy of the ion-electron system (eV)
  ---------------------------------------------------
  alpha Z        PSCENC =       532.73731502
  Ewald energy   TEWEN  =     -5591.05299967
  -1/2 Hartree   DENC   =     -2694.51245940
  -exchange  EXHF       =         0.00000000
  -V(xc)+E(xc)   XCENC  =       379.78669195
  PAW double counting   =      6806.52282042    -6760.64702266
  entropy T*S    EENTRO =        -0.00000000
  eigenvalues    EBANDS =     -1318.59309071
  atomic energy  EATOM  =      8493.55293326
  ---------------------------------------------------
  free energy    TOTEN  =      -152.20581179 eV

  energy without entropy =     -152.20581179  energy(sigma->0) =     -152.20581179


--------------------------------------------------------------------------------------------------------




----------------------------------------- Iteration    1(   9)  ---------------------------------------


     EDDAV:  cpu time   39.66: real time   39.71
       DOS:  cpu time    0.01: real time    0.01
    --------------------------------------------
      LOOP:  cpu time   39.68: real time   39.72

 eigenvalue-minimisations  :  9336
 total energy-change (2. order) :-0.9165306E-06  (-0.9149508E-06)
 number of electron     104.0000000 magnetization      14.0000000
 augmentation part      104.0000000 magnetization      14.0000000

 Free energy of the ion-electron system (eV)
  ---------------------------------------------------
  alpha Z        PSCENC =       532.73731502
  Ewald energy   TEWEN  =     -5591.05299967
  -1/2 Hartree   DENC   =     -2694.51245940
  -exchange  EXHF       =         0.00000000
  -V(xc)+E(xc)   XCENC  =       379.78669195
  PAW double counting   =      6806.52282042    -6760.64702266
  entropy T*S    EENTRO =        -0.00000000
  eigenvalues    EBANDS =     -1318.59309163
  atomic energy  EATOM  =      8493.55293326
  ---------------------------------------------------
  free energy    TOTEN  =      -152.20581271 eV

  energy without entropy =     -152.20581271  energy(sigma->0) =     -152.20581271


--------------------------------------------------------------------------------------------------------




----------------------------------------- Iteration    1(  10)  ---------------------------------------


     EDDAV:  cpu time   36.99: real time   37.03
       DOS:  cpu time    0.01: real time    0.01
    CHARGE:  cpu time    2.03: real time    2.03
    MIXING:  cpu time    0.00: real time    0.01
    --------------------------------------------
      LOOP:  cpu time   39.04: real time   39.08

 eigenvalue-minimisations  :  8448
 total energy-change (2. order) :-0.4424837E-06  (-0.4419945E-06)
 number of electron     103.9999463 magnetization       9.8064815
 augmentation part       22.2074695 magnetization       9.9604320

 Broyden mixing:
  rms(total) = 0.84609E+01    rms(broyden)= 0.84605E+01
  rms(prec ) = 0.87818E+01
  weight for this iteration     100.00

 Free energy of the ion-electron system (eV)
  ---------------------------------------------------
  alpha Z        PSCENC =       532.73731502
  Ewald energy   TEWEN  =     -5591.05299967
  -1/2 Hartree   DENC   =     -2694.51245940
  -exchange  EXHF       =         0.00000000
  -V(xc)+E(xc)   XCENC  =       379.78669195
  PAW double counting   =      6806.52282042    -6760.64702266
  entropy T*S    EENTRO =        -0.00000000
  eigenvalues    EBANDS =     -1318.59309207
  atomic energy  EATOM  =      8493.55293326
  ---------------------------------------------------
  free energy    TOTEN  =      -152.20581315 eV

  energy without entropy =     -152.20581315  energy(sigma->0) =     -152.20581315


--------------------------------------------------------------------------------------------------------




----------------------------------------- Iteration    1(  11)  ---------------------------------------


    POTLOK:  cpu time    0.30: real time    0.31
    SETDIJ:  cpu time    0.11: real time    0.11
    EDDIAG:  cpu time    6.54: real time    6.54
  RMM-DIIS:  cpu time   37.85: real time   37.89
    ORTHCH:  cpu time    1.61: real time    1.61
       DOS:  cpu time    0.03: real time    0.03
    CHARGE:  cpu time    2.25: real time    2.25
    MIXING:  cpu time    0.00: real time    0.01
    --------------------------------------------
      LOOP:  cpu time   48.70: real time   48.75

 eigenvalue-minimisations  : 13953
 total energy-change (2. order) : 0.4840097E+02  (-0.1859064E+02)
 number of electron     103.9999640 magnetization       6.2428707
 augmentation part       22.1704068 magnetization       5.8309237

 Broyden mixing:
  rms(total) = 0.30954E+01    rms(broyden)= 0.30938E+01
  rms(prec ) = 0.31313E+01
  weight for this iteration     100.00

 eigenvalues of (default mixing * dielectric matrix)
  average eigenvalue GAMMA=   1.2163
  1.2163

 Free energy of the ion-electron system (eV)
  ---------------------------------------------------
  alpha Z        PSCENC =       532.73731502
  Ewald energy   TEWEN  =     -5591.05299967
  -1/2 Hartree   DENC   =     -2789.13536659
  -exchange  EXHF       =         0.00000000
  -V(xc)+E(xc)   XCENC  =       400.98592591
  PAW double counting   =      9455.86317844    -9424.46675379
  entropy T*S    EENTRO =         0.00239656
  eigenvalues    EBANDS =     -1182.29147549
  atomic energy  EATOM  =      8493.55293326
  ---------------------------------------------------
  free energy    TOTEN  =      -103.80484635 eV

  energy without entropy =     -103.80724291  energy(sigma->0) =     -103.80544549


--------------------------------------------------------------------------------------------------------




----------------------------------------- Iteration    1(  12)  ---------------------------------------


    POTLOK:  cpu time    0.30: real time    0.31
    SETDIJ:  cpu time    0.11: real time    0.11
    EDDIAG:  cpu time    6.54: real time    6.54
  RMM-DIIS:  cpu time   35.18: real time   35.21
    ORTHCH:  cpu time    1.61: real time    1.61
       DOS:  cpu time    0.03: real time    0.03
    CHARGE:  cpu time    2.18: real time    2.18
    MIXING:  cpu time    0.00: real time    0.01
    --------------------------------------------
      LOOP:  cpu time   45.95: real time   45.99

 eigenvalue-minimisations  : 12949
 total energy-change (2. order) :-0.5062624E+01  (-0.9859322E+00)
 number of electron     103.9999614 magnetization       3.7569842
 augmentation part       22.1068199 magnetization       3.4100270

 Broyden mixing:
  rms(total) = 0.17913E+01    rms(broyden)= 0.17910E+01
  rms(prec ) = 0.18121E+01
  weight for this iteration     100.00

 eigenvalues of (default mixing * dielectric matrix)
  average eigenvalue GAMMA=   1.0003
  1.4263  0.5743

 Free energy of the ion-electron system (eV)
  ---------------------------------------------------
  alpha Z        PSCENC =       532.73731502
  Ewald energy   TEWEN  =     -5591.05299967
  -1/2 Hartree   DENC   =     -2776.27116619
  -exchange  EXHF       =         0.00000000
  -V(xc)+E(xc)   XCENC  =       395.11528111
  PAW double counting   =     11506.20965726   -11478.40955624
  entropy T*S    EENTRO =         0.00299205
  eigenvalues    EBANDS =     -1190.75192662
  atomic energy  EATOM  =      8493.55293326
  ---------------------------------------------------
  free energy    TOTEN  =      -108.86747001 eV

  energy without entropy =     -108.87046206  energy(sigma->0) =     -108.86821802


--------------------------------------------------------------------------------------------------------




----------------------------------------- Iteration    1(  13)  ---------------------------------------


    POTLOK:  cpu time    0.30: real time    0.31
    SETDIJ:  cpu time    0.11: real time    0.11
    EDDIAG:  cpu time    6.54: real time    6.54
  RMM-DIIS:  cpu time   33.79: real time   33.81
    ORTHCH:  cpu time    1.61: real time    1.61
       DOS:  cpu time    0.03: real time    0.03
    CHARGE:  cpu time    2.24: real time    2.24
    MIXING:  cpu time    0.01: real time    0.01
    --------------------------------------------
      LOOP:  cpu time   44.62: real time   44.66

 eigenvalue-minimisations  : 12466
 total energy-change (2. order) :-0.9217761E+01  (-0.9060718E+00)
 number of electron     103.9999625 magnetization       1.6976365
 augmentation part       22.1148259 magnetization       1.4566833

 Broyden mixing:
  rms(total) = 0.10064E+01    rms(broyden)= 0.10064E+01
  rms(prec ) = 0.10099E+01
  weight for this iteration     100.00

 eigenvalues of (default mixing * dielectric matrix)
  average eigenvalue GAMMA=   1.2413
  2.2362  0.9378  0.5499

 Free energy of the ion-electron system (eV)
  ---------------------------------------------------
  alpha Z        PSCENC =       532.73731502
  Ewald energy   TEWEN  =     -5591.05299967
  -1/2 Hartree   DENC   =     -2775.73624343
  -exchange  EXHF       =         0.00000000
  -V(xc)+E(xc)   XCENC  =       389.93005491
  PAW double counting   =     12795.13834440   -12770.51132967
  entropy T*S    EENTRO =         0.00414891
  eigenvalues    EBANDS =     -1192.14745487
  atomic energy  EATOM  =      8493.55293326
  ---------------------------------------------------
  free energy    TOTEN  =      -118.08523114 eV

  energy without entropy =     -118.08938005  energy(sigma->0) =     -118.08626837


--------------------------------------------------------------------------------------------------------




----------------------------------------- Iteration    1(  14)  ---------------------------------------


    POTLOK:  cpu time    0.30: real time    0.31
    SETDIJ:  cpu time    0.11: real time    0.11
    EDDIAG:  cpu time    6.54: real time    6.54
  RMM-DIIS:  cpu time   35.11: real time   35.14
    ORTHCH:  cpu time    1.61: real time    1.61
       DOS:  cpu time    0.03: real time    0.03
    CHARGE:  cpu time    2.25: real time    2.25
    MIXING:  cpu time    0.01: real time    0.01
    --------------------------------------------
      LOOP:  cpu time   45.95: real time   45.99

 eigenvalue-minimisations  : 13004
 total energy-change (2. order) :-0.5578838E+01  (-0.7603621E+00)
 number of electron     103.9999628 magnetization       1.1366779
 augmentation part       22.1023439 magnetization       1.0093104

 Broyden mixing:
  rms(total) = 0.23278E+00    rms(broyden)= 0.23252E+00
  rms(prec ) = 0.24257E+00
  weight for this iteration     100.00

 eigenvalues of (default mixing * dielectric matrix)
  average eigenvalue GAMMA=   1.1904
  2.4449  1.0505  0.6938  0.5725

 Free energy of the ion-electron system (eV)
  ---------------------------------------------------
  alpha Z        PSCENC =       532.73731502
  Ewald energy   TEWEN  =     -5591.05299967
  -1/2 Hartree   DENC   =     -2772.07277609
  -exchange  EXHF       =         0.00000000
  -V(xc)+E(xc)   XCENC  =       386.88566825
  PAW double counting   =     13792.88013198   -13770.20718896
  entropy T*S    EENTRO =         0.00376589
  eigenvalues    EBANDS =     -1196.39091867
  atomic energy  EATOM  =      8493.55293326
  ---------------------------------------------------
  free energy    TOTEN  =      -123.66406898 eV

  energy without entropy =     -123.66783487  energy(sigma->0) =     -123.66501045


--------------------------------------------------------------------------------------------------------




----------------------------------------- Iteration    1(  15)  ---------------------------------------


    POTLOK:  cpu time    0.30: real time    0.31
    SETDIJ:  cpu time    0.11: real time    0.11
    EDDIAG:  cpu time    6.54: real time    6.54
  RMM-DIIS:  cpu time   34.22: real time   34.26
    ORTHCH:  cpu time    1.61: real time    1.61
       DOS:  cpu time    0.03: real time    0.03
    CHARGE:  cpu time    2.24: real time    2.24
    MIXING:  cpu time    0.01: real time    0.01
    --------------------------------------------
      LOOP:  cpu time   45.06: real time   45.10

 eigenvalue-minimisations  : 12650
 total energy-change (2. order) :-0.1367125E+01  (-0.2182545E+00)
 number of electron     103.9999628 magnetization       0.7917682
 augmentation part       22.0788672 magnetization       0.7254089

 Broyden mixing:
  rms(total) = 0.15163E+00    rms(broyden)= 0.15143E+00
  rms(prec ) = 0.16004E+00
  weight for this iteration     100.00

 eigenvalues of (default mixing * dielectric matrix)
  average eigenvalue GAMMA=   1.1558
  2.4049  1.3953  0.7725  0.6556  0.5509

 Free energy of the ion-electron system (eV)
  ---------------------------------------------------
  alpha Z        PSCENC =       532.73731502
  Ewald energy   TEWEN  =     -5591.05299967
  -1/2 Hartree   DENC   =     -2768.14825006
  -exchange  EXHF       =         0.00000000
  -V(xc)+E(xc)   XCENC  =       386.06929195
  PAW double counting   =     13854.60335966   -13831.99072664
  entropy T*S    EENTRO =         0.00370114
  eigenvalues    EBANDS =     -1200.80581840
  atomic energy  EATOM  =      8493.55293326
  ---------------------------------------------------
  free energy    TOTEN  =      -125.03119374 eV

  energy without entropy =     -125.03489488  energy(sigma->0) =     -125.03211902


--------------------------------------------------------------------------------------------------------




----------------------------------------- Iteration    1(  16)  ---------------------------------------


    POTLOK:  cpu time    0.31: real time    0.31
    SETDIJ:  cpu time    0.10: real time    0.11
    EDDIAG:  cpu time    6.54: real time    6.54
  RMM-DIIS:  cpu time   33.89: real time   33.92
    ORTHCH:  cpu time    1.61: real time    1.61
       DOS:  cpu time    0.01: real time    0.01
    CHARGE:  cpu time    2.18: real time    2.18
    MIXING:  cpu time    0.01: real time    0.01
    --------------------------------------------
      LOOP:  cpu time   44.65: real time   44.69

 eigenvalue-minimisations  : 12512
 total energy-change (2. order) :-0.5738764E+00  (-0.9023632E-01)
 number of electron     103.9999627 magnetization       0.3109753
 augmentation part       22.0756966 magnetization       0.2581984

 Broyden mixing:
  rms(total) = 0.87965E-01    rms(broyden)= 0.87805E-01
  rms(prec ) = 0.94833E-01
  weight for this iteration     100.00

 eigenvalues of (default mixing * dielectric matrix)
  average eigenvalue GAMMA=   1.1795
  2.3530  1.9762  0.8986  0.6969  0.5763  0.5763

 Free energy of the ion-electron system (eV)
  ---------------------------------------------------
  alpha Z        PSCENC =       532.73731502
  Ewald energy   TEWEN  =     -5591.05299967
  -1/2 Hartree   DENC   =     -2761.90692724
  -exchange  EXHF       =         0.00000000
  -V(xc)+E(xc)   XCENC  =       385.48666500
  PAW double counting   =     13764.03884241   -13741.26320355
  entropy T*S    EENTRO =        -0.00000000
  eigenvalues    EBANDS =     -1207.19769540
  atomic energy  EATOM  =      8493.55293326
  ---------------------------------------------------
  free energy    TOTEN  =      -125.60507017 eV

  energy without entropy =     -125.60507017  energy(sigma->0) =     -125.60507017


--------------------------------------------------------------------------------------------------------




----------------------------------------- Iteration    1(  17)  ---------------------------------------


    POTLOK:  cpu time    0.30: real time    0.30
    SETDIJ:  cpu time    0.10: real time    0.11
    EDDIAG:  cpu time    6.54: real time    6.54
  RMM-DIIS:  cpu time   33.44: real time   33.47
    ORTHCH:  cpu time    1.61: real time    1.61
       DOS:  cpu time    0.03: real time    0.03
    CHARGE:  cpu time    2.22: real time    2.23
    MIXING:  cpu time    0.01: real time    0.01
    --------------------------------------------
      LOOP:  cpu time   44.26: real time   44.30

 eigenvalue-minimisations  : 12325
 total energy-change (2. order) :-0.2520380E+00  (-0.6195918E-01)
 number of electron     103.9999628 magnetization       0.1747597
 augmentation part       22.0837887 magnetization       0.1491223

 Broyden mixing:
  rms(total) = 0.41964E-01    rms(broyden)= 0.41722E-01
  rms(prec ) = 0.46586E-01
  weight for this iteration     100.00

 eigenvalues of (default mixing * dielectric matrix)
  average eigenvalue GAMMA=   1.2126
  2.3733  2.3733  1.1448  0.8076  0.6797  0.5547  0.5547

 Free energy of the ion-electron system (eV)
  ---------------------------------------------------
  alpha Z        PSCENC =       532.73731502
  Ewald energy   TEWEN  =     -5591.05299967
  -1/2 Hartree   DENC   =     -2754.55294810
  -exchange  EXHF       =         0.00000000
  -V(xc)+E(xc)   XCENC  =       385.03913924
  PAW double counting   =     13736.73961015   -13713.92805056
  entropy T*S    EENTRO =         0.00430466
  eigenvalues    EBANDS =     -1214.39641219
  atomic energy  EATOM  =      8493.55293326
  ---------------------------------------------------
  free energy    TOTEN  =      -125.85710818 eV

  energy without entropy =     -125.86141284  energy(sigma->0) =     -125.85818435


--------------------------------------------------------------------------------------------------------




----------------------------------------- Iteration    1(  18)  ---------------------------------------


    POTLOK:  cpu time    0.30: real time    0.30
    SETDIJ:  cpu time    0.11: real time    0.11
    EDDIAG:  cpu time    6.54: real time    6.54
  RMM-DIIS:  cpu time   33.28: real time   33.31
    ORTHCH:  cpu time    1.61: real time    1.61
       DOS:  cpu time    0.03: real time    0.03
    CHARGE:  cpu time    2.21: real time    2.21
    MIXING:  cpu time    0.01: real time    0.01
    --------------------------------------------
      LOOP:  cpu time   44.08: real time   44.12

 eigenvalue-minimisations  : 12249
 total energy-change (2. order) :-0.4633169E-02  (-0.6638324E-02)
 number of electron     103.9999628 magnetization       0.0461525
 augmentation part       22.0835583 magnetization       0.0374650

 Broyden mixing:
  rms(total) = 0.23463E-01    rms(broyden)= 0.23406E-01
  rms(prec ) = 0.26818E-01
  weight for this iteration     100.00

 eigenvalues of (default mixing * dielectric matrix)
  average eigenvalue GAMMA=   1.2418
  2.9086  2.3859  1.2237  0.8286  0.7622  0.7622  0.5317  0.5317

 Free energy of the ion-electron system (eV)
  ---------------------------------------------------
  alpha Z        PSCENC =       532.73731502
  Ewald energy   TEWEN  =     -5591.05299967
  -1/2 Hartree   DENC   =     -2752.25507535
  -exchange  EXHF       =         0.00000000
  -V(xc)+E(xc)   XCENC  =       384.94014096
  PAW double counting   =     13731.10992899   -13708.28148261
  entropy T*S    EENTRO =         0.00446119
  eigenvalues    EBANDS =     -1216.61696316
  atomic energy  EATOM  =      8493.55293326
  ---------------------------------------------------
  free energy    TOTEN  =      -125.86174135 eV

  energy without entropy =     -125.86620254  energy(sigma->0) =     -125.86285665


--------------------------------------------------------------------------------------------------------




----------------------------------------- Iteration    1(  19)  ---------------------------------------


    POTLOK:  cpu time    0.30: real time    0.30
    SETDIJ:  cpu time    0.11: real time    0.11
    EDDIAG:  cpu time    6.54: real time    6.54
  RMM-DIIS:  cpu time   34.77: real time   34.80
    ORTHCH:  cpu time    1.61: real time    1.61
       DOS:  cpu time    0.03: real time    0.03
    CHARGE:  cpu time    2.20: real time    2.20
    MIXING:  cpu time    0.01: real time    0.01
    --------------------------------------------
      LOOP:  cpu time   45.57: real time   45.61

 eigenvalue-minimisations  : 12811
 total energy-change (2. order) :-0.1698444E-02  (-0.1986167E-02)
 number of electron     103.9999628 magnetization       0.0254957
 augmentation part       22.0848111 magnetization       0.0244899

 Broyden mixing:
  rms(total) = 0.10750E-01    rms(broyden)= 0.10702E-01
  rms(prec ) = 0.13072E-01
  weight for this iteration     100.00

 eigenvalues of (default mixing * dielectric matrix)
  average eigenvalue GAMMA=   1.2428
  3.0011  2.4669  1.3008  0.9464  0.9464  0.7285  0.7285  0.5332  0.5332

 Free energy of the ion-electron system (eV)
  ---------------------------------------------------
  alpha Z        PSCENC =       532.73731502
  Ewald energy   TEWEN  =     -5591.05299967
  -1/2 Hartree   DENC   =     -2750.26985131
  -exchange  EXHF       =         0.00000000
  -V(xc)+E(xc)   XCENC  =       384.85275334
  PAW double counting   =     13731.49562502   -13708.64878940
  entropy T*S    EENTRO =         0.00448215
  eigenvalues    EBANDS =     -1218.53490821
  atomic energy  EATOM  =      8493.55293326
  ---------------------------------------------------
  free energy    TOTEN  =      -125.86343979 eV

  energy without entropy =     -125.86792194  energy(sigma->0) =     -125.86456033


--------------------------------------------------------------------------------------------------------




----------------------------------------- Iteration    1(  20)  ---------------------------------------


    POTLOK:  cpu time    0.30: real time    0.30
    SETDIJ:  cpu time    0.11: real time    0.11
    EDDIAG:  cpu time    6.54: real time    6.54
  RMM-DIIS:  cpu time   29.36: real time   29.39
    ORTHCH:  cpu time    1.61: real time    1.61
       DOS:  cpu time    0.03: real time    0.03
    CHARGE:  cpu time    2.19: real time    2.19
    MIXING:  cpu time    0.01: real time    0.01
    --------------------------------------------
      LOOP:  cpu time   40.15: real time   40.18

 eigenvalue-minimisations  : 10689
 total energy-change (2. order) : 0.3122081E-03  (-0.2050056E-03)
 number of electron     103.9999628 magnetization       0.0023378
 augmentation part       22.0844310 magnetization       0.0028159

 Broyden mixing:
  rms(total) = 0.76461E-02    rms(broyden)= 0.76397E-02
  rms(prec ) = 0.84916E-02
  weight for this iteration     100.00

 eigenvalues of (default mixing * dielectric matrix)
  average eigenvalue GAMMA=   1.2993
  3.0792  2.5723  1.9265  1.2832  0.9351  0.7689  0.7689  0.5717  0.5435  0.5435

 Free energy of the ion-electron system (eV)
  ---------------------------------------------------
  alpha Z        PSCENC =       532.73731502
  Ewald energy   TEWEN  =     -5591.05299967
  -1/2 Hartree   DENC   =     -2749.86980534
  -exchange  EXHF       =         0.00000000
  -V(xc)+E(xc)   XCENC  =       384.84189320
  PAW double counting   =     13725.85356882   -13702.97942036
  entropy T*S    EENTRO =         0.00447419
  eigenvalues    EBANDS =     -1218.95108671
  atomic energy  EATOM  =      8493.55293326
  ---------------------------------------------------
  free energy    TOTEN  =      -125.86312758 eV

  energy without entropy =     -125.86760178  energy(sigma->0) =     -125.86424613


--------------------------------------------------------------------------------------------------------




----------------------------------------- Iteration    1(  21)  ---------------------------------------


    POTLOK:  cpu time    0.30: real time    0.30
    SETDIJ:  cpu time    0.11: real time    0.11
    EDDIAG:  cpu time    6.54: real time    6.54
  RMM-DIIS:  cpu time   24.98: real time   25.00
    ORTHCH:  cpu time    1.61: real time    1.61
       DOS:  cpu time    0.03: real time    0.03
    --------------------------------------------
      LOOP:  cpu time   33.57: real time   33.60

 eigenvalue-minimisations  :  8939
 total energy-change (2. order) :-0.7438994E-04  (-0.5960940E-04)
 number of electron     103.9999628 magnetization       0.0023378
 augmentation part       22.0844310 magnetization       0.0028159

 Free energy of the ion-electron system (eV)
  ---------------------------------------------------
  alpha Z        PSCENC =       532.73731502
  Ewald energy   TEWEN  =     -5591.05299967
  -1/2 Hartree   DENC   =     -2749.59676796
  -exchange  EXHF       =         0.00000000
  -V(xc)+E(xc)   XCENC  =       384.83406407
  PAW double counting   =     13728.96583445   -13706.08339228
  entropy T*S    EENTRO =         0.00448136
  eigenvalues    EBANDS =     -1219.22467023
  atomic energy  EATOM  =      8493.55293326
  ---------------------------------------------------
  free energy    TOTEN  =      -125.86320197 eV

  energy without entropy =     -125.86768333  energy(sigma->0) =     -125.86432231


--------------------------------------------------------------------------------------------------------




 average (electrostatic) potential at core
  the test charge radii are     1.2125  0.7215
  (the norm of the test charge is              1.0000)
       1 -40.6988       2 -40.6988       3 -40.6988       4 -40.6988       5 -73.7955
       6 -73.7955       7 -74.2520       8 -74.2427       9 -74.2427      10 -73.7955
      11 -73.7955      12 -74.2520      13 -74.2427      14 -74.2427
 
 
 
 E-fermi :   0.0758     XC(G=0):  -9.5559     alpha+bet : -8.1818


 spin component 1

 k-point   1 :       0.0000    0.0000    0.0000
  band No.  band energies     occupation 
      1     -31.1561      1.00000
      2     -31.0614      1.00000
      3     -31.0055      1.00000
      4     -30.9572      1.00000
      5     -30.9463      1.00000
      6     -30.9445      1.00000
      7     -30.9415      1.00000
      8     -30.9411      1.00000
      9     -30.9358      1.00000
     10     -30.8825      1.00000
     11     -30.8803      1.00000
     12     -30.8791      1.00000
     13     -17.5262      1.00000
     14     -17.3911      1.00000
     15     -16.9420      1.00000
     16     -16.9166      1.00000
     17     -16.4861      1.00000
     18     -16.3318      1.00000
     19     -16.2313      1.00000
     20     -16.2223      1.00000
     21     -16.1825      1.00000
     22     -16.1300      1.00000
     23      -5.1530      1.00000
     24      -4.4279      1.00000
     25      -4.2848      1.00000
     26      -4.2757      1.00000
     27      -4.1966      1.00000
     28      -2.9479      1.00000
     29      -2.5743      1.00000
     30      -2.5672      1.00000
     31      -2.4999      1.00000
     32      -2.2365      1.00000
     33      -2.2079      1.00000
     34      -2.1292      1.00000
     35      -2.0582      1.00000
     36      -1.8828      1.00000
     37      -1.8383      1.00000
     38      -1.6934      1.00000
     39      -1.5825      1.00000
     40      -1.3744      1.00000
     41      -1.2936      1.00000
     42      -1.2346      1.00000
     43      -1.2273      1.00000
     44      -1.1404      1.00000
     45      -1.0208      1.00000
     46      -1.0127      1.00000
     47      -0.9588      1.00000
     48      -0.8639      1.00000
     49      -0.8335      1.00000
     50      -0.6976      1.00000
     51      -0.6742      1.00000
     52      -0.5564      1.00000
     53       2.3281      0.00000
     54       2.5383      0.00000
     55       2.9389      0.00000
     56       2.9491      0.00000
     57       3.1478      0.00000
     58       3.1780      0.00000
     59       4.2029      0.00000
     60       4.3861      0.00000
     61       4.5757      0.00000
     62       4.6458      0.00000
     63       5.0040      0.00000
     64       5.1492      0.00000
     65       5.3784      0.00000
     66       5.5520      0.00000
     67       6.3099      0.00000
     68       6.6120      0.00000
     69       6.9483      0.00000

 k-point   2 :       0.2000    0.0000    0.0000
  band No.  band energies     occupation 
      1     -31.1504      1.00000
      2     -31.0794      1.00000
      3     -30.9902      1.00000
      4     -30.9577      1.00000
      5     -30.9467      1.00000
      6     -30.9442      1.00000
      7     -30.9439      1.00000
      8     -30.9414      1.00000
      9     -30.9303      1.00000
     10     -30.8855      1.00000
     11     -30.8822      1.00000
     12     -30.8794      1.00000
     13     -17.5155      1.00000
     14     -17.4062      1.00000
     15     -16.9384      1.00000
     16     -16.9184      1.00000
     17     -16.4711      1.00000
     18     -16.3479      1.00000
     19     -16.2313      1.00000
     20     -16.2274      1.00000
     21     -16.1713      1.00000
     22     -16.1323      1.00000
     23      -5.1124      1.00000
     24      -4.5473      1.00000
     25      -4.4145      1.00000
     26      -4.2924      1.00000
     27      -3.9071      1.00000
     28      -3.0410      1.00000
     29      -2.5629      1.00000
     30      -2.5307      1.00000
     31      -2.4869      1.00000
     32      -2.2745      1.00000
     33      -2.1511      1.00000
     34      -2.1473      1.00000
     35      -2.1351      1.00000
     36      -1.8763      1.00000
     37      -1.8073      1.00000
     38      -1.6511      1.00000
     39      -1.5986      1.00000
     40      -1.4035      1.00000
     41      -1.2814      1.00000
     42      -1.2328      1.00000
     43      -1.2265      1.00000
     44      -1.1675      1.00000
     45      -1.0215      1.00000
     46      -1.0131      1.00000
     47      -0.9223      1.00000
     48      -0.8604      1.00000
     49      -0.8348      1.00000
     50      -0.7188      1.00000
     51      -0.6636      1.00000
     52      -0.5725      1.00000
     53       2.3451      0.00000
     54       2.5131      0.00000
     55       2.9620      0.00000
     56       2.9725      0.00000
     57       3.1309      0.00000
     58       3.1553      0.00000
     59       4.2331      0.00000
     60       4.4047      0.00000
     61       4.5294      0.00000
     62       4.6066      0.00000
     63       5.1265      0.00000
     64       5.1829      0.00000
     65       5.3636      0.00000
     66       5.5760      0.00000
     67       6.1549      0.00000
     68       6.3821      0.00000
     69       6.6212      0.00000

 k-point   3 :       0.4000    0.0000    0.0000
  band No.  band energies     occupation 
      1     -31.1338      1.00000
      2     -31.1087      1.00000
      3     -30.9706      1.00000
      4     -30.9608      1.00000
      5     -30.9471      1.00000
      6     -30.9462      1.00000
      7     -30.9434      1.00000
      8     -30.9423      1.00000
      9     -30.9172      1.00000
     10     -30.8996      1.00000
     11     -30.8813      1.00000
     12     -30.8802      1.00000
     13     -17.4836      1.00000
     14     -17.4428      1.00000
     15     -16.9308      1.00000
     16     -16.9236      1.00000
     17     -16.4330      1.00000
     18     -16.3860      1.00000
     19     -16.2314      1.00000
     20     -16.2306      1.00000
     21     -16.1538      1.00000
     22     -16.1399      1.00000
     23      -4.9935      1.00000
     24      -4.8011      1.00000
     25      -4.3784      1.00000
     26      -4.3316      1.00000
     27      -3.5758      1.00000
     28      -3.2693      1.00000
     29      -2.5317      1.00000
     30      -2.4956      1.00000
[...]
     21     -15.3706      1.00000
     22     -15.3656      1.00000
     23      -5.0903      1.00000
     24      -5.0828      1.00000
     25      -4.6540      1.00000
     26      -4.5487      1.00000
     27      -4.4594      1.00000
     28      -4.4280      1.00000
     29      -4.2679      1.00000
     30      -4.1992      1.00000
     31      -4.1003      1.00000
     32      -4.0805      1.00000
     33      -3.9980      1.00000
     34      -3.8014      1.00000
     35      -3.6577      1.00000
     36      -3.5719      1.00000
     37      -3.2333      1.00000
     38      -3.0887      1.00000
     39      -2.9177      1.00000
     40      -2.8311      1.00000
     41      -2.5814      1.00000
     42      -2.4124      1.00000
     43      -1.8842      1.00000
     44      -1.8689      1.00000
     45      -1.3208      1.00000
     46      -1.2989      1.00000
     47      -0.3332      1.00000
     48      -0.2904      0.99999
     49      -0.1140      0.99589
     50      -0.1061      0.99726
     51       0.0168      0.97185
     52       0.0434      0.79524
     53       2.8351      0.00000
     54       2.8387      0.00000
     55       4.1483      0.00000
     56       4.1579      0.00000
     57       4.5343      0.00000
     58       4.6040      0.00000
     59       5.0172      0.00000
     60       5.1101      0.00000
     61       5.2024      0.00000
     62       5.2385      0.00000
     63       5.4839      0.00000
     64       5.5408      0.00000
     65       5.9905      0.00000
     66       6.2513      0.00000
     67       7.5197      0.00000
     68       7.7925      0.00000
     69       8.8641      0.00000

 k-point  39 :      -0.2000    0.4000    0.4000
  band No.  band energies     occupation 
      1     -31.1479      1.00000
      2     -31.1223      1.00000
      3     -31.1022      1.00000
      4     -31.0884      1.00000
      5     -31.0412      1.00000
      6     -31.0378      1.00000
      7     -31.0335      1.00000
      8     -31.0276      1.00000
      9     -30.9602      1.00000
     10     -30.9586      1.00000
     11     -30.9095      1.00000
     12     -30.8926      1.00000
     13     -16.7621      1.00000
     14     -16.6431      1.00000
     15     -16.4852      1.00000
     16     -16.3605      1.00000
     17     -16.1611      1.00000
     18     -16.1554      1.00000
     19     -15.4079      1.00000
     20     -15.3983      1.00000
     21     -15.3733      1.00000
     22     -15.3638      1.00000
     23      -5.0836      1.00000
     24      -5.0772      1.00000
     25      -4.6852      1.00000
     26      -4.5464      1.00000
     27      -4.4847      1.00000
     28      -4.3716      1.00000
     29      -4.2987      1.00000
     30      -4.1396      1.00000
     31      -4.0726      1.00000
     32      -4.0555      1.00000
     33      -4.0360      1.00000
     34      -3.7658      1.00000
     35      -3.6654      1.00000
     36      -3.6532      1.00000
     37      -3.3951      1.00000
     38      -3.1082      1.00000
     39      -2.9438      1.00000
     40      -2.8060      1.00000
     41      -2.4419      1.00000
     42      -2.2320      1.00000
     43      -1.9095      1.00000
     44      -1.7666      1.00000
     45      -1.4675      1.00000
     46      -1.4055      1.00000
     47      -0.3858      1.00000
     48      -0.2437      0.99987
     49      -0.1044      0.99768
     50      -0.0825      1.00702
     51       0.0027      1.02264
     52       0.0363      0.85285
     53       2.8599      0.00000
     54       2.8840      0.00000
     55       4.1249      0.00000
     56       4.1452      0.00000
     57       4.5062      0.00000
     58       4.6360      0.00000
     59       4.9332      0.00000
     60       5.1130      0.00000
     61       5.2523      0.00000
     62       5.2954      0.00000
     63       5.4992      0.00000
     64       5.5166      0.00000
     65       5.8259      0.00000
     66       6.4647      0.00000
     67       7.2693      0.00000
     68       7.9722      0.00000
     69       8.9202      0.00000


--------------------------------------------------------------------------------------------------------


 soft charge-density along one line, spin component           1
         0         1         2         3         4         5         6         7         8         9
 total charge-density along one line
 
 soft charge-density along one line, spin component           2
         0         1         2         3         4         5         6         7         8         9
 total charge-density along one line
 
 pseudopotential strength for first ion, spin component:           1
-31.047  -0.006  -0.000   7.957   0.004   0.000   0.000   0.013
 -0.006 -30.941   0.000   0.004   7.893  -0.000  -0.000   0.013
 -0.000   0.000 -31.045   0.000  -0.000   7.956   0.014  -0.000
  7.957   0.004   0.000   3.451  -0.001  -0.000  -0.000   0.005
  0.004   7.893  -0.000  -0.001   3.476   0.000   0.000  -0.004
  0.000  -0.000   7.956  -0.000   0.000   3.451  -0.002   0.000
  0.000  -0.000   0.014  -0.000   0.000  -0.002  -7.553   0.000
  0.013   0.013  -0.000   0.005  -0.004   0.000   0.000  -7.514
 -0.003  -0.022  -0.000  -0.001   0.025   0.000   0.000  -0.001
 -0.000   0.000   0.013   0.000  -0.000   0.005  -0.002  -0.000
 -0.003  -0.000   0.000   0.001   0.000  -0.000   0.000   0.001
  0.000  -0.000   0.017  -0.000   0.000  -0.002  -8.646   0.000
  0.015   0.015  -0.000   0.006  -0.004   0.000   0.000  -8.598
 -0.003  -0.026  -0.000  -0.001   0.029   0.000   0.000  -0.002
 -0.000   0.000   0.014   0.000  -0.000   0.006  -0.003  -0.000
 -0.003  -0.001   0.000   0.001   0.000  -0.000   0.000   0.001
  0.002   0.026  -0.000  -0.000  -0.009   0.000   0.000   0.002
 -0.007  -0.073   0.000   0.001   0.024   0.000  -0.000  -0.004
 pseudopotential strength for first ion, spin component:           2
-31.047  -0.006  -0.000   7.957   0.004   0.000   0.000   0.013
 -0.006 -30.941   0.000   0.004   7.893  -0.000  -0.000   0.013
 -0.000   0.000 -31.045   0.000  -0.000   7.956   0.014  -0.000
  7.957   0.004   0.000   3.451  -0.001  -0.000  -0.000   0.005
  0.004   7.893  -0.000  -0.001   3.476   0.000   0.000  -0.004
  0.000  -0.000   7.956  -0.000   0.000   3.451  -0.002   0.000
  0.000  -0.000   0.014  -0.000   0.000  -0.002  -7.553   0.000
  0.013   0.013  -0.000   0.005  -0.004   0.000   0.000  -7.514
 -0.003  -0.022  -0.000  -0.001   0.025   0.000   0.000  -0.001
 -0.000   0.000   0.013   0.000  -0.000   0.005  -0.002  -0.000
 -0.003  -0.000   0.000   0.001   0.000  -0.000   0.000   0.001
  0.000  -0.000   0.017  -0.000   0.000  -0.002  -8.646   0.000
  0.015   0.015  -0.000   0.006  -0.004   0.000   0.000  -8.598
 -0.003  -0.026  -0.000  -0.001   0.029   0.000   0.000  -0.002
 -0.000   0.000   0.014   0.000  -0.000   0.006  -0.003  -0.000
 -0.003  -0.001   0.000   0.001   0.000  -0.000   0.000   0.001
  0.002   0.026  -0.000  -0.000  -0.009   0.000   0.000   0.002
 -0.007  -0.073   0.000   0.001   0.024   0.000  -0.000  -0.004
 total augmentation occupancy for first ion, spin component:           1
  1.984  -0.000  -0.000  -0.049  -0.001   0.000   0.000  -0.007  -0.031  -0.000  -0.094   0.000   0.008   0.027   0.000   0.086
 -0.000   1.985  -0.000  -0.001  -0.039  -0.000  -0.000   0.016   0.212   0.000   0.004  -0.000  -0.015  -0.184   0.000  -0.003
  0.000   0.000   1.984  -0.000   0.000  -0.050  -0.020   0.000   0.000   0.000  -0.000   0.022   0.000  -0.000   0.001   0.000
 -0.049  -0.001  -0.000   0.343  -0.004   0.000   0.000  -0.184  -0.180   0.000  -0.852  -0.000   0.163   0.129   0.000   0.612
 -0.001  -0.039  -0.000  -0.004   0.405   0.000   0.000   0.032   1.462   0.000   0.020   0.000  -0.018  -1.029   0.000  -0.014
 -0.000  -0.000  -0.050   0.000   0.000   0.348  -0.619  -0.000  -0.000  -0.147   0.000   0.441  -0.000   0.000   0.134  -0.000
  0.000   0.000  -0.020  -0.000   0.000  -0.619   6.785   0.000   0.000   0.909   0.000  -4.495   0.000   0.000  -0.698   0.000
 -0.007   0.016   0.000  -0.184   0.032   0.000  -0.000   6.492   0.349   0.000   1.492  -0.000  -4.009  -0.265  -0.000  -1.126
 -0.031   0.212   0.000  -0.180   1.462   0.000  -0.000   0.349  22.366  -0.000   0.230   0.000  -0.262 -16.081   0.000  -0.175
  0.000   0.000   0.000  -0.000   0.000  -0.147   0.909   0.000   0.000   6.283  -0.000  -0.698  -0.000  -0.000  -3.865   0.000
 -0.094   0.004   0.000  -0.852   0.020   0.000  -0.000   1.492   0.230  -0.000  17.073   0.000  -1.126  -0.177   0.000 -12.128
 -0.000  -0.000   0.022   0.000  -0.000   0.441  -4.495  -0.000   0.000  -0.698   0.000   3.011  -0.000   0.000   0.534   0.000
  0.008  -0.015   0.000   0.163  -0.018   0.000  -0.000  -4.009  -0.262  -0.000  -1.126   0.000   2.501   0.199   0.000   0.851
  0.027  -0.184  -0.000   0.129  -1.029  -0.000  -0.000  -0.265 -16.081   0.000  -0.177   0.000   0.199  11.694   0.000   0.133
  0.000   0.000   0.001   0.000  -0.000   0.134  -0.698  -0.000   0.000  -3.865   0.000   0.534  -0.000   0.000   2.401  -0.000
  0.086  -0.003   0.000   0.612  -0.014  -0.000  -0.000  -1.126  -0.175  -0.000 -12.128   0.000   0.851   0.133   0.000   8.697
  0.009   0.021  -0.000   0.083   0.216  -0.000   0.000  -0.145   0.693   0.000  -0.088   0.000   0.102  -0.459  -0.000   0.071
  0.003   0.005   0.000   0.002   0.007  -0.000   0.000  -0.009   0.051  -0.000  -0.004   0.000   0.006  -0.039  -0.000   0.003
 total augmentation occupancy for first ion, spin component:           2
 -0.000  -0.000   0.000  -0.000   0.000   0.000   0.000  -0.000  -0.000   0.000   0.000  -0.000   0.000   0.000  -0.000  -0.000
 -0.000   0.000   0.000  -0.000   0.000   0.000  -0.000  -0.000   0.000   0.000   0.000   0.000   0.000  -0.000  -0.000  -0.000
  0.000   0.000   0.000   0.000   0.000   0.000  -0.000   0.000   0.000   0.000   0.000   0.000   0.000  -0.000  -0.000   0.000
 -0.000  -0.000   0.000   0.000  -0.000   0.000  -0.000  -0.000   0.000   0.000   0.000   0.000   0.000  -0.000   0.000  -0.000
  0.000   0.000   0.000  -0.000   0.000   0.000   0.000   0.000   0.000  -0.000   0.000  -0.000  -0.000  -0.000   0.000  -0.000
  0.000   0.000   0.000   0.000   0.000   0.000  -0.000  -0.000   0.000  -0.000  -0.000   0.000  -0.000  -0.000   0.000   0.000
  0.000  -0.000  -0.000  -0.000   0.000  -0.000  -0.000   0.000   0.000  -0.000  -0.000   0.000   0.000  -0.000   0.000   0.000
 -0.000  -0.000   0.000  -0.000   0.000  -0.000   0.000  -0.000  -0.000  -0.000   0.000   0.000   0.000   0.000   0.000  -0.000
 -0.000   0.000   0.000   0.000   0.000   0.000   0.000  -0.000  -0.000   0.000  -0.000  -0.000   0.000   0.000   0.000   0.000
  0.000   0.000   0.000   0.000  -0.000  -0.000  -0.000  -0.000   0.000   0.000  -0.000  -0.000   0.000   0.000  -0.000   0.000
  0.000   0.000   0.000   0.000   0.000  -0.000  -0.000   0.000  -0.000  -0.000  -0.000   0.000  -0.000   0.000   0.000   0.000
 -0.000   0.000   0.000   0.000  -0.000   0.000   0.000   0.000  -0.000  -0.000   0.000  -0.000   0.000  -0.000   0.000   0.000
  0.000   0.000   0.000   0.000  -0.000  -0.000   0.000   0.000   0.000   0.000  -0.000   0.000  -0.000  -0.000  -0.000   0.000
  0.000  -0.000  -0.000  -0.000  -0.000  -0.000  -0.000   0.000   0.000   0.000   0.000  -0.000  -0.000  -0.000  -0.000  -0.000
 -0.000  -0.000  -0.000   0.000   0.000   0.000   0.000   0.000   0.000  -0.000   0.000   0.000  -0.000  -0.000   0.000   0.000
 -0.000  -0.000   0.000  -0.000  -0.000   0.000   0.000  -0.000   0.000   0.000   0.000   0.000   0.000  -0.000   0.000  -0.000
 -0.000   0.000   0.000  -0.000  -0.000   0.000  -0.000  -0.000  -0.000  -0.000   0.000   0.000   0.000  -0.000   0.000  -0.000
 -0.000   0.000   0.000  -0.000  -0.000   0.000  -0.000   0.000  -0.000  -0.000   0.000   0.000  -0.000   0.000   0.000  -0.000


------------------------ aborting loop because EDIFF is reached ----------------------------------------


    CHARGE:  cpu time    2.17: real time    2.17
    FORLOC:  cpu time    0.02: real time    0.03
    FORNL :  cpu time   36.00: real time   36.02
    STRESS:  cpu time   28.76: real time   28.78
    FORCOR:  cpu time    0.32: real time    0.32
    FORHAR:  cpu time    0.05: real time    0.05
    MIXING:  cpu time    0.00: real time    0.01

  FORCE on cell =-STRESS in cart. coord.  units (eV):
  Direction    XX          YY          ZZ          XY          YZ          ZX
  --------------------------------------------------------------------------------------
  Alpha Z   532.73732   532.73732   532.73732
  Ewald   -1794.20186 -2059.59704 -1733.89456    -0.00000    47.16866    -0.00000
  Hartree  1010.96829   697.25170  1044.74832     0.00000    28.99778     0.00000
  E(xc)    -488.83704  -488.48626  -488.56198     0.00000     0.04967     0.00000
  Local    -819.87957  -242.67526  -938.63961     0.00000   -76.33410     0.00000
  n-local  -374.84164  -376.71061  -382.45614    -0.37526    -1.04178     0.37718
  augment   175.25434   175.85394   180.01276     0.00000     0.12007    -0.00000
  Kinetic  1740.38746  1743.22793  1767.15019     0.28855     0.99246     2.84825
  Fock        0.00000     0.00000     0.00000     0.00000     0.00000     0.00000
  -------------------------------------------------------------------------------------
  Total     -18.41270   -18.39828   -18.90371     0.00000    -0.04724     0.00000
  in kB    -143.27815  -143.16592  -147.09893     0.00000    -0.36760     0.00000
  external pressure =     -144.51 kB  Pullay stress =        0.00 kB


 VOLUME and BASIS-vectors are now :
 -----------------------------------------------------------------------------
  energy-cutoff  :      350.00
  volume of cell :      205.90
      direct lattice vectors                 reciprocal lattice vectors
     0.000000000 13.093070000  0.000000000     0.000000000  0.076376281 -0.001008547
     3.872730000  0.000000000  0.000000000     0.258215781  0.000000000  0.000000000
     0.000000000 -0.053620000 -4.060592000     0.000000000  0.000000000 -0.246269509

  length of vectors
    13.093070000  3.872730000  4.060946010     0.076382940  0.258215781  0.246269509


 FORCES acting on ions
    electron-ion (+dipol)            ewald-force                    non-local-force                 convergence-correction
 -----------------------------------------------------------------------------------------------
   0.966E-14 -.200E+03 0.239E+02   -.514E-13 0.199E+03 -.262E+02   0.694E-17 0.373E+00 0.225E+01   0.222E-13 -.337E-04 0.243E-05
   0.182E-11 0.200E+03 -.239E+02   0.337E-13 -.199E+03 0.262E+02   0.347E-16 -.373E+00 -.225E+01   -.617E-12 0.337E-04 -.243E-05
   -.152E-11 -.200E+03 0.239E+02   -.519E-13 0.199E+03 -.262E+02   0.694E-17 0.373E+00 0.225E+01   0.122E-12 -.337E-04 0.243E-05
   -.497E-13 0.200E+03 -.239E+02   0.331E-13 -.199E+03 0.262E+02   0.208E-16 -.373E+00 -.225E+01   -.182E-12 0.337E-04 -.243E-05
   0.124E-13 -.105E+03 -.888E+02   -.138E-13 0.105E+03 0.104E+03   0.694E-17 0.369E-01 -.147E+02   0.263E-12 -.299E-04 0.273E-05
   -.871E-12 0.105E+03 0.888E+02   0.116E-13 -.105E+03 -.104E+03   0.000E+00 -.369E-01 0.147E+02   -.146E-12 0.299E-04 -.273E-05
   0.206E-14 -.182E-12 0.795E-13   -.102E-14 0.568E-13 0.633E-14   0.000E+00 0.840E-25 0.414E-24   -.150E-13 0.311E-12 -.119E-12
   -.481E-13 0.126E+03 -.201E+02   -.235E-13 -.128E+03 0.236E+02   0.173E-17 0.178E+01 -.351E+01   0.457E-12 0.217E-04 -.513E-06
   -.233E-11 -.126E+03 0.201E+02   0.347E-13 0.128E+03 -.236E+02   0.173E-17 -.178E+01 0.351E+01   -.280E-13 -.217E-04 0.513E-06
   0.315E-11 -.105E+03 -.888E+02   -.138E-13 0.105E+03 0.104E+03   0.694E-17 0.369E-01 -.147E+02   0.113E-12 -.299E-04 0.273E-05
   -.843E-15 0.105E+03 0.888E+02   0.107E-13 -.105E+03 -.104E+03   -.139E-16 -.369E-01 0.147E+02   -.166E-12 0.299E-04 -.273E-05
   0.480E-11 0.504E-12 0.281E-11   -.449E-14 0.853E-13 0.844E-14   0.000E+00 -.872E-25 0.569E-24   -.725E-13 -.168E-12 0.291E-12
   0.820E-12 0.126E+03 -.201E+02   -.259E-13 -.128E+03 0.236E+02   0.000E+00 0.178E+01 -.351E+01   0.135E-12 0.217E-04 -.513E-06
   -.983E-14 -.126E+03 0.201E+02   0.347E-13 0.128E+03 -.236E+02   -.173E-17 -.178E+01 0.351E+01   -.135E-12 -.217E-04 0.513E-06
 -----------------------------------------------------------------------------------------------
   0.579E-11 0.506E-11 -.166E-11   -.273E-13 -.369E-12 0.533E-13   0.711E-16 0.222E-15 0.000E+00   -.249E-12 -.347E-12 0.876E-12
 
 
 POSITION                                       TOTAL-FORCE (eV/Angst)
 -----------------------------------------------------------------------------------
      0.00000     11.12981     -3.78808        -0.000000      0.004862      0.008009
      1.93636      8.45618     -0.27251         0.000000     -0.004862     -0.008009
      1.93636      4.58327     -3.78808         0.000000      0.004862      0.008009
      0.00000      1.90964     -0.27251         0.000000     -0.004862     -0.008009
      0.00000     11.12780     -1.98875         0.000000     -0.008613     -0.003595
      1.93636      8.45818     -2.07184        -0.000000      0.008613      0.003595
      0.00000      0.00000      0.00000         0.000000     -0.000000     -0.000000
     -0.00000      8.96883     -0.01643        -0.000000      0.001459      0.001145
      1.93636     10.61715     -4.04417        -0.000000     -0.001459     -0.001145
      1.93636      4.58127     -1.98875         0.000000     -0.008613     -0.003595
     -0.00000      1.91165     -2.07184        -0.000000      0.008613      0.003595
      1.93636      6.54654      0.00000        -0.000000     -0.000000     -0.000000
      1.93636      2.42230     -0.01643         0.000000      0.001459      0.001145
     -0.00000      4.07062     -4.04417         0.000000     -0.001459     -0.001145
 -----------------------------------------------------------------------------------
    total drift:                                0.000000      0.000000     -0.000000


--------------------------------------------------------------------------------------------------------



  FREE ENERGIE OF THE ION-ELECTRON SYSTEM (eV)
  ---------------------------------------------------
  free  energy   TOTEN  =      -125.86435741 eV

  energy  without entropy=     -125.86876377  energy(sigma->0) =     -125.86545900
 
 d Force = 0.3078084E-08[-0.139E-08, 0.754E-08]  d Energy = 0.6919436E-08-0.384E-08
 d Force =-0.1097014E-02[-0.110E-02,-0.110E-02]  d Ewald  =-0.1097013E-02-0.327E-10


--------------------------------------------------------------------------------------------------------


    POTLOK:  cpu time    0.41: real time    0.40


--------------------------------------------------------------------------------------------------------




--------------------------------------------------------------------------------------------------------


  
 reached required accuracy - stopping structural energy minimisation
     LOOP+:  cpu time  166.53: real time  166.65
    4ORBIT:  cpu time    0.00: real time    0.00

 total amount of memory used by VASP on root node   367132. kBytes
========================================================================

   base      :      30000. kBytes
   nonl-proj :      35376. kBytes
   fftplans  :       6180. kBytes
   grid      :      16139. kBytes
   one-center:        435. kBytes
   wavefun   :     279002. kBytes
 
  
  
 General timing and accounting informations for this job:
 ========================================================
  
                  Total CPU time used (sec):     4161.952
                            User time (sec):     4161.604
                          System time (sec):        0.348
                         Elapsed time (sec):     4165.303
  
                   Maximum memory used (kb):      926824.
                   Average memory used (kb):           0.
  
                          Minor page faults:        43295
                          Major page faults:            1
                 Voluntary context switches:            7
