<?xml version="1.0" encoding="ISO-8859-1"?>
<modeling>
 <generator>
  <i name="program" type="string">vasp </i>
  <i name="version" type="string">5.3.3  </i>
  <i name="subversion" type="string">18Dez12 (build Sep  7 2015 22:32:56) complex                          parallel </i>
  <i name="platform" type="string">LinuxIFC </i>
  <i name="date" type="string">2022 12 22 </i>
  <i name="time" type="string">15:34:18 </i>
 </generator>
 <incar>
  <i type="string" name="SYSTEM"> Crystal</i>
  <i type="int" name="ISTART">     0</i>
  <i type="string" name="PREC">normal</i>
  <i type="string" name="ALGO"> fast</i>
  <i type="int" name="NSIM">     4</i>
  <i type="int" name="ISPIN">     2</i>
  <i type="int" name="ICHARG">     2</i>
  <i type="int" name="NELMDL">   -10</i>
  <i type="int" name="NELMIN">     4</i>
  <i type="int" name="IBRION">     2</i>
  <i name="EDIFF">      0.00010000</i>
  <i name="EDIFFG">     -0.01000000</i>
  <i type="int" name="NSW">   300</i>
  <i name="ENCUT">    350.00000000</i>
  <i type="logical" name="LREAL"> F  </i>
  <i type="int" name="ISMEAR">     2</i>
  <i name="SIGMA">      0.10000000</i>
  <i type="logical" name="LWAVE"> F  </i>
  <i type="logical" name="LCHARG"> F  </i>
 </incar>
 <kpoints>
  <generation param="Gamma">
   <v type="int" name="divisions">       5        5        5 </v>
   <v name="usershift">      0.00000000       0.00000000       0.00000000 </v>
   <v name="genvec1">      0.20000000       0.00000000       0.00000000 </v>
   <v name="genvec2">      0.00000000       0.20000000       0.00000000 </v>
   <v name="genvec3">      0.00000000       0.00000000       0.20000000 </v>
   <v name="shift">      0.00000000       0.00000000       0.00000000 </v>
  </generation>
  <varray name="kpointlist" >
   <v>       0.00000000       0.00000000       0.00000000 </v>
   <v>       0.20000000       0.00000000       0.00000000 </v>
   <v>       0.40000000       0.00000000       0.00000000 </v>
   <v>       0.00000000       0.20000000       0.00000000 </v>
   <v>       0.20000000       0.20000000       0.00000000 </v>
   <v>       0.40000000       0.20000000       0.00000000 </v>
   <v>       0.00000000       0.40000000       0.00000000 </v>
   <v>       0.20000000       0.40000000       0.00000000 </v>
   <v>       0.40000000       0.40000000       0.00000000 </v>
   <v>       0.00000000       0.00000000       0.20000000 </v>
   <v>       0.20000000       0.00000000       0.20000000 </v>
   <v>       0.40000000       0.00000000       0.20000000 </v>
   <v>      -0.40000000       0.00000000       0.20000000 </v>
   <v>      -0.20000000       0.00000000       0.20000000 </v>
   <v>       0.00000000       0.20000000       0.20000000 </v>
   <v>       0.20000000       0.20000000       0.20000000 </v>
   <v>       0.40000000       0.20000000       0.20000000 </v>
   <v>      -0.40000000       0.20000000       0.20000000 </v>
   <v>      -0.20000000       0.20000000       0.20000000 </v>
   <v>       0.00000000       0.40000000       0.20000000 </v>
   <v>       0.20000000       0.40000000       0.20000000 </v>
   <v>       0.40000000       0.40000000       0.20000000 </v>
   <v>      -0.40000000       0.40000000       0.20000000 </v>
   <v>      -0.20000000       0.40000000       0.20000000 </v>
   <v>       0.00000000       0.00000000       0.40000000 </v>
   <v>       0.20000000       0.00000000       0.40000000 </v>
   <v>       0.40000000       0.00000000       0.40000000 </v>
   <v>      -0.40000000       0.00000000       0.40000000 </v>
   <v>      -0.20000000       0.00000000       0.40000000 </v>
   <v>       0.00000000       0.20000000       0.40000000 </v>
   <v>       0.20000000       0.20000000       0.40000000 </v>
   <v>       0.40000000       0.20000000       0.40000000 </v>
   <v>      -0.40000000       0.20000000       0.40000000 </v>
   <v>      -0.20000000       0.20000000       0.40000000 </v>
   <v>       0.00000000       0.40000000       0.40000000 </v>
   <v>       0.20000000       0.40000000       0.40000000 </v>
   <v>       0.40000000       0.40000000       0.40000000 </v>
   <v>      -0.40000000       0.40000000       0.40000000 </v>
   <v>      -0.20000000       0.40000000       0.40000000 </v>
  </varray>
  <varray name="weights" >
   <v>       0.00800000 </v>
   <v>       0.01600000 </v>
   <v>       0.01600000 </v>
   <v>       0.01600000 </v>
   <v>       0.03200000 </v>
   <v>       0.03200000 </v>
   <v>       0.01600000 </v>
   <v>       0.03200000 </v>
   <v>       0.03200000 </v>
   <v>       0.01600000 </v>
   <v>       0.01600000 </v>
   <v>       0.01600000 </v>
   <v>       0.01600000 </v>
   <v>       0.01600000 </v>
   <v>       0.03200000 </v>
   <v>       0.03200000 </v>
   <v>       0.03200000 </v>
   <v>       0.03200000 </v>
   <v>       0.03200000 </v>
   <v>       0.03200000 </v>
   <v>       0.03200000 </v>
   <v>       0.03200000 </v>
   <v>       0.03200000 </v>
   <v>       0.03200000 </v>
   <v>       0.01600000 </v>
   <v>       0.01600000 </v>
   <v>       0.01600000 </v>
   <v>       0.01600000 </v>
   <v>       0.01600000 </v>
   <v>       0.03200000 </v>
   <v>       0.03200000 </v>
   <v>       0.03200000 </v>
   <v>       0.03200000 </v>
   <v>       0.03200000 </v>
   <v>       0.03200000 </v>
   <v>       0.03200000 </v>
   <v>       0.03200000 </v>
   <v>       0.03200000 </v>
   <v>       0.03200000 </v>
  </varray>
 </kpoints>
 <parameters>
  <separator name="general" >
   <i type="string" name="SYSTEM">Crystal</i>
   <i type="logical" name="LCOMPAT"> F  </i>
  </separator>
  <separator name="electronic" >
   <i type="string" name="PREC">normal</i>
   <i name="ENMAX">    350.00000000</i>
   <i name="ENAUG">    605.39200000</i>
   <i name="EDIFF">      0.00010000</i>
   <i type="int" name="IALGO">    68</i>
   <i type="int" name="IWAVPR">    11</i>
   <i type="int" name="NBANDS">    69</i>
   <i name="NELECT">    104.00000000</i>
   <i type="int" name="TURBO">     0</i>
   <i type="int" name="IRESTART">     0</i>
   <i type="int" name="NREBOOT">     0</i>
   <i type="int" name="NMIN">     0</i>
   <i name="EREF">      0.00000000</i>
   <separator name="electronic smearing" >
    <i type="int" name="ISMEAR">     2</i>
    <i name="SIGMA">      0.10000000</i>
    <i name="KSPACING">      0.50000000</i>
    <i type="logical" name="KGAMMA"> T  </i>
   </separator>
   <separator name="electronic projectors" >
    <i type="logical" name="LREAL"> F  </i>
    <v name="ROPT">      0.00000000      0.00000000</v>
    <i type="int" name="LMAXPAW">  -100</i>
    <i type="int" name="LMAXMIX">     2</i>
    <i type="logical" name="NLSPLINE"> F  </i>
   </separator>
   <separator name="electronic startup" >
    <i type="int" name="ISTART">     0</i>
    <i type="int" name="ICHARG">     2</i>
    <i type="int" name="INIWAV">     1</i>
   </separator>
   <separator name="electronic spin" >
    <i type="int" name="ISPIN">     2</i>
    <i type="logical" name="LNONCOLLINEAR"> F  </i>
    <v name="MAGMOM">      1.00000000      1.00000000      1.00000000      1.00000000      1.00000000      1.00000000      1.00000000      1.00000000      1.00000000      1.00000000      1.00000000      1.00000000      1.00000000      1.00000000</v>
    <i name="NUPDOWN">     -1.00000000</i>
    <i type="logical" name="LSORBIT"> F  </i>
    <v name="SAXIS">      0.00000000      0.00000000      1.00000000</v>
    <i type="logical" name="LSPIRAL"> F  </i>
    <v name="QSPIRAL">      0.00000000      0.00000000      0.00000000</v>
    <i type="logical" name="LZEROZ"> F  </i>
   </separator>
   <separator name="electronic exchange-correlation" >
    <i type="logical" name="LASPH"> F  </i>
    <i type="logical" name="LMETAGGA"> F  </i>
   </separator>
   <separator name="electronic convergence" >
    <i type="int" name="NELM">    60</i>
    <i type="int" name="NELMDL">   -10</i>
    <i type="int" name="NELMIN">     4</i>
    <i name="ENINI">    350.00000000</i>
    <separator name="electronic convergence detail" >
     <i type="logical" name="LDIAG"> T  </i>
     <i type="logical" name="LSUBROT"> T  </i>
     <i name="WEIMIN">      0.00100000</i>
     <i name="EBREAK">      0.00000036</i>
     <i name="DEPER">      0.30000000</i>
     <i type="int" name="NRMM">     4</i>
     <i name="TIME">      0.40000000</i>
    </separator>
   </separator>
   <separator name="electronic mixer" >
    <i name="AMIX">      0.40000000</i>
    <i name="BMIX">      1.00000000</i>
    <i name="AMIN">      0.10000000</i>
    <i name="AMIX_MAG">      1.60000000</i>
    <i name="BMIX_MAG">      1.00000000</i>
    <separator name="electronic mixer details" >
     <i type="int" name="IMIX">     4</i>
     <i type="int" name="MAXMIX">   -45</i>
     <i name="WC">    100.00000000</i>
     <i type="int" name="INIMIX">     1</i>
     <i type="int" name="MIXPRE">     1</i>
     <i type="int" name="MREMOVE">     5</i>
    </separator>
   </separator>
   <separator name="electronic dipolcorrection" >
    <i type="logical" name="LDIPOL"> F  </i>
    <i type="logical" name="LMONO"> F  </i>
    <i type="int" name="IDIPOL">     0</i>
    <i name="EPSILON">      1.00000000</i>
    <v name="DIPOL">   -100.00000000   -100.00000000   -100.00000000</v>
    <i name="EFIELD">      0.00000000</i>
   </separator>
  </separator>
  <separator name="grids" >
   <i type="int" name="NGX">    60</i>
   <i type="int" name="NGY">    18</i>
   <i type="int" name="NGZ">    20</i>
   <i type="int" name="NGXF">   120</i>
   <i type="int" name="NGYF">    36</i>
   <i type="int" name="NGZF">    40</i>
   <i type="logical" name="ADDGRID"> F  </i>
  </separator>
  <separator name="ionic" >
   <i type="int" name="NSW">   300</i>
   <i type="int" name="IBRION">     2</i>
   <i type="int" name="ISIF">     2</i>
   <i name="PSTRESS">      0.00000000</i>
   <i name="EDIFFG">     -0.01000000</i>
   <i type="int" name="NFREE">     1</i>
   <i name="POTIM">      0.50000000</i>
   <i name="SMASS">     -3.00000000</i>
   <i name="SCALEE">      1.00000000</i>
  </separator>
  <separator name="ionic md" >
   <i name="TEBEG">      0.00010000</i>
   <i name="TEEND">      0.00010000</i>
   <i type="int" name="NBLOCK">     1</i>
   <i type="int" name="KBLOCK">   300</i>
   <i type="int" name="NPACO">   256</i>
   <i name="APACO">     16.00000000</i>
  </separator>
  <separator name="symmetry" >
   <i type="int" name="ISYM">     2</i>
   <i name="SYMPREC">      0.00001000</i>
  </separator>
  <separator name="dos" >
   <i type="logical" name="LORBIT"> F  </i>
   <v name="RWIGS">     -1.00000000     -1.00000000</v>
   <i type="int" name="NEDOS">   301</i>
   <i name="EMIN">     10.00000000</i>
   <i name="EMAX">    -10.00000000</i>
   <i name="EFERMI">      0.00000000</i>
  </separator>
  <separator name="writing" >
   <i type="int" name="NWRITE">     2</i>
   <i type="logical" name="LWAVE"> F  </i>
   <i type="logical" name="LCHARG"> F  </i>
   <i type="logical" name="LPARD"> F  </i>
   <i type="logical" name="LVTOT"> F  </i>
   <i type="logical" name="LVHAR"> F  </i>
   <i type="logical" name="LELF"> F  </i>
   <i type="logical" name="LOPTICS"> F  </i>
   <v name="STM">      0.00000000      0.00000000      0.00000000      0.00000000      0.00000000      0.00000000      0.00000000</v>
  </separator>
  <separator name="performance" >
   <i type="int" name="NPAR">     1</i>
   <i type="int" name="NSIM">     4</i>
   <i type="int" name="NBLK">    -1</i>
   <i type="logical" name="LPLANE"> T  </i>
   <i type="logical" name="LSCALAPACK"> F  </i>
   <i type="logical" name="LSCAAWARE"> F  </i>
   <i type="logical" name="LSCALU"> F  </i>
   <i type="logical" name="LASYNC"> F  </i>
   <i type="logical" name="LORBITALREAL"> F  </i>
  </separator>
  <separator name="miscellaneous" >
   <i type="int" name="IDIOT">     3</i>
   <i type="logical" name="LMUSIC"> F  </i>
   <v name="POMASS">     92.00000000     16.00000000</v>
   <v name="DARWINR">      0.00000000      0.00000000</v>
   <v name="DARWINV">      1.00000000      1.00000000</v>
   <i type="logical" name="LCORR"> T  </i>
  </separator>
  <i type="logical" name="GGA_COMPAT"> T  </i>
  <i type="logical" name="LBERRY"> F  </i>
  <i type="int" name="ICORELEVEL">     0</i>
  <i type="logical" name="LDAU"> F  </i>
  <i type="int" name="I_CONSTRAINED_M">     0</i>
  <separator name="electronic exchange-correlation" >
   <i type="string" name="GGA">--</i>
   <i type="int" name="VOSKOWN">     0</i>
   <i type="logical" name="LHFCALC"> F  </i>
   <i type="string" name="PRECFOCK"></i>
   <i type="logical" name="LSYMGRAD"> F  </i>
   <i type="logical" name="LHFONE"> F  </i>
   <i type="logical" name="LRHFCALC"> F  </i>
   <i type="logical" name="LTHOMAS"> F  </i>
   <i type="logical" name="LMODELHF"> F  </i>
   <i name="ENCUT4O">     -1.00000000</i>
   <i type="int" name="EXXOEP">     0</i>
   <i type="int" name="FOURORBIT">     0</i>
   <i name="AEXX">      0.00000000</i>
   <i name="HFALPHA">      0.00000000</i>
   <i name="MCALPHA">      0.00000000</i>
   <i name="ALDAX">      1.00000000</i>
   <i name="AGGAX">      1.00000000</i>
   <i name="ALDAC">      1.00000000</i>
   <i name="AGGAC">      1.00000000</i>
   <i type="int" name="NKREDX">     1</i>
   <i type="int" name="NKREDY">     1</i>
   <i type="int" name="NKREDZ">     1</i>
   <i type="logical" name="SHIFTRED"> F  </i>
   <i type="logical" name="ODDONLY"> F  </i>
   <i type="logical" name="EVENONLY"> F  </i>
   <i type="int" name="LMAXFOCK">     0</i>
   <i type="int" name="NMAXFOCKAE">     0</i>
   <i type="logical" name="LFOCKAEDFT"> F  </i>
   <i name="HFSCREEN">      0.00000000</i>
   <i name="HFSCREENC">      0.00000000</i>
   <i type="int" name="NBANDSGWLOW">     0</i>
  </separator>
  <separator name="vdW DFT" >
   <i type="logical" name="LUSE_VDW"> F  </i>
   <i name="Zab_VDW">     -0.84910000</i>
   <i name="PARAM1">      0.12340000</i>
   <i name="PARAM2">      1.00000000</i>
   <i name="PARAM3">      0.00000000</i>
  </separator>
  <separator name="model GW" >
   <i type="int" name="MODEL_GW">     0</i>
   <i name="MODEL_EPS0">      8.82411743</i>
   <i name="MODEL_ALPHA">      1.00000000</i>
  </separator>
  <separator name="linear response parameters" >
   <i type="logical" name="LEPSILON"> F  </i>
   <i type="logical" name="LRPA"> F  </i>
   <i type="logical" name="LNABLA"> F  </i>
   <i type="logical" name="LVEL"> F  </i>
   <i type="int" name="KINTER">     0</i>
   <i name="CSHIFT">      0.10000000</i>
   <i name="OMEGAMAX">     -1.00000000</i>
   <i name="DEG_THRESHOLD">      0.00200000</i>
  </separator>
  <separator name="orbital magnetization" >
   <i type="logical" name="NUCIND"> F  </i>
   <v name="MAGPOS">      0.00000000      0.00000000      0.00000000</v>
   <i type="logical" name="LNICSALL"> T  </i>
   <i type="logical" name="ORBITALMAG"> F  </i>
   <i type="logical" name="LMAGBLOCH"> F  </i>
   <i type="logical" name="LCHIMAG"> F  </i>
   <i type="logical" name="LGAUGE"> T  </i>
   <i type="int" name="MAGATOM">     0</i>
   <v name="MAGDIPOL">      0.00000000      0.00000000      0.00000000</v>
   <v name="AVECCONST">      0.00000000      0.00000000      0.00000000</v>
  </separator>
  <separator name="response functions" >
   <i type="logical" name="LADDER"> F  </i>
   <i type="logical" name="LFXC"> F  </i>
   <i type="logical" name="LHARTREE"> T  </i>
   <i type="int" name="IBSE">     0</i>
   <i type="logical" name="LTCTE"> F  </i>
   <i type="logical" name="LTETE"> F  </i>
   <i type="logical" name="LTRIPLET"> F  </i>
   <i type="logical" name="LFXCEPS"> F  </i>
   <i type="logical" name="L2ORDER"> F  </i>
   <i type="logical" name="LUSEW"> F  </i>
   <i name="ENCUTGW">     -2.00000000</i>
   <i name="ENCUTGWSOFT">     -2.00000000</i>
   <i name="ENCUTLF">     -1.00000000</i>
   <i type="int" name="LMAXMP2">    -1</i>
   <i name="SCISSOR">      0.00000000</i>
   <i type="int" name="NOMEGA">     0</i>
   <i type="int" name="NOMEGAR">     0</i>
   <i type="int" name="NBANDSGW">    -1</i>
   <i type="int" name="NBANDSO">    -1</i>
   <i type="int" name="NBANDSV">    -1</i>
   <i type="int" name="NELM">     1</i>
   <i type="int" name="DIM">     3</i>
   <i type="int" name="ANTIRES">     0</i>
   <i name="OMEGAMAX">    -30.00000000</i>
   <i name="OMEGATL">   -200.00000000</i>
   <i type="int" name="OMEGAGRID">     0</i>
   <i name="CSHIFT">     -0.10000000</i>
   <i type="logical" name="SELFENERGY"> F  </i>
   <i type="logical" name="LSPECTRAL"> F  </i>
   <i type="logical" name="ODDONLYGW"> F  </i>
   <i type="logical" name="EVENONLYGW"> F  </i>
   <i type="int" name="NKREDLFX">     1</i>
   <i type="int" name="NKREDLFY">     1</i>
   <i type="int" name="NKREDLFZ">     1</i>
   <i type="int" name="MAXMEM">  1800</i>
   <i type="int" name="TELESCOPE">     0</i>
  </separator>
 </parameters>
 <atominfo>
  <atoms>      14 </atoms>
  <types>       2 </types>
  <array name="atoms" >
   <dimension dim="1">ion</dimension>
   <field type="string">element</field>
   <field type="int">atomtype</field>
   <set>
    <rc><c>Nb</c><c>   1</c></rc>
    <rc><c>Nb</c><c>   1</c></rc>
    <rc><c>Nb</c><c>   1</c></rc>
    <rc><c>Nb</c><c>   1</c></rc>
    <rc><c>O </c><c>   2</c></rc>
    <rc><c>O </c><c>   2</c></rc>
    <rc><c>O </c><c>   2</c></rc>
    <rc><c>O </c><c>   2</c></rc>
    <rc><c>O </c><c>   2</c></rc>
    <rc><c>O </c><c>   2</c></rc>
    <rc><c>O </c><c>   2</c></rc>
    <rc><c>O </c><c>   2</c></rc>
    <rc><c>O </c><c>   2</c></rc>
    <rc><c>O </c><c>   2</c></rc>
   </set>
  </array>
  <array name="atomtypes" >
   <dimension dim="1">type</dimension>
   <field type="int">atomspertype</field>
   <field type="string">element</field>
   <field>mass</field>
   <field>valence</field>
   <field type="string">pseudopotential</field>
   <set>
    <rc><c>   4</c><c>Nb</c><c>     92.00000000</c><c>     11.00000000</c><c>  PAW_PBE Nb_pv 08Apr2002               </c></rc>
    <rc><c>  10</c><c>O </c><c>     16.00000000</c><c>      6.00000000</c><c>  PAW_PBE O 08Apr2002                   </c></rc>
   </set>
  </array>
 </atominfo>
 <structure name="initialpos" >
  <crystal>
   <varray name="basis" >
    <v>       0.00000000      13.09307000       0.00000000 </v>
    <v>       3.87273000       0.00000000       0.00000000 </v>
    <v>       0.00000000      -0.05362000      -4.06059200 </v>
   </varray>
   <i name="volume">    205.89607333 </i>
   <varray name="rec_basis" >
    <v>       0.00000000       0.07637628      -0.00100855 </v>
    <v>       0.25821578       0.00000000       0.00000000 </v>
    <v>       0.00000000       0.00000000      -0.24626951 </v>
   </varray>
  </crystal>
  <varray name="positions" >
   <v>       0.85384000       0.00000000       0.93278400 </v>
   <v>       0.64616000       0.50000000       0.06721600 </v>
   <v>       0.35384000       0.50000000       0.93278400 </v>
   <v>       0.14616000       0.00000000       0.06721600 </v>
   <v>       0.85241700       0.00000000       0.48936600 </v>
   <v>       0.64758300       0.50000000       0.51063400 </v>
   <v>       0.00000000       0.00000000       0.00000000 </v>
   <v>       0.68503300       0.00000000       0.00308500 </v>
   <v>       0.81496700       0.50000000       0.99691500 </v>
   <v>       0.35241700       0.50000000       0.48936600 </v>
   <v>       0.14758300       0.00000000       0.51063400 </v>
   <v>       0.50000000       0.50000000       0.00000000 </v>
   <v>       0.18503300       0.50000000       0.00308500 </v>
   <v>       0.31496700       0.00000000       0.99691500 </v>
  </varray>
  <varray name="selective"  type="logical" >
   <v type="logical" >  T  T  T </v>
   <v type="logical" >  T  T  T </v>
   <v type="logical" >  T  T  T </v>
   <v type="logical" >  T  T  T </v>
   <v type="logical" >  T  T  T </v>
   <v type="logical" >  T  T  T </v>
   <v type="logical" >  T  T  T </v>
   <v type="logical" >  T  T  T </v>
   <v type="logical" >  T  T  T </v>
   <v type="logical" >  T  T  T </v>
   <v type="logical" >  T  T  T </v>
   <v type="logical" >  T  T  T </v>
   <v type="logical" >  T  T  T </v>
   <v type="logical" >  T  T  T </v>
  </varray>
  <nose>
   <v>      -3.00000000       0.00000000       0.00010000       0.00010000 </v>
  </nose>
 </structure>
 <calculation>
  <scstep>
   <time name="dav">   43.89   43.93</time>
   <time name="total">   44.33   44.39</time>
   <energy>
    <i name="alphaZ">    532.73731502 </i>
    <i name="ewald">  -5591.05299967 </i>
    <i name="hartreedc">  -2694.51245940 </i>
    <i name="XCdc">    379.78669195 </i>
    <i name="pawpsdc">   6806.52282042 </i>
    <i name="pawaedc">  -6760.64702266 </i>
    <i name="eentropy">     -0.00171347 </i>
    <i name="bandstr">    -34.78903095 </i>
    <i name="atom">   8493.55293326 </i>
    <i name="e_fr_energy">   1131.59653449 </i>
    <i name="e_wo_entrp">   1131.59824797 </i>
    <i name="e_0_energy">   1131.59696286 </i>
   </energy>
  </scstep>
  <scstep>
   <time name="dav">   46.57   46.62</time>
   <time name="total">   46.60   46.65</time>
   <energy>
    <i name="e_fr_energy">     38.52685616 </i>
    <i name="e_wo_entrp">     38.52622239 </i>
    <i name="e_0_energy">     38.52669772 </i>
   </energy>
  </scstep>
  <scstep>
   <time name="dav">   63.28   63.35</time>
   <time name="total">   63.32   63.38</time>
   <energy>
    <i name="e_fr_energy">   -144.53318724 </i>
    <i name="e_wo_entrp">   -144.53321610 </i>
    <i name="e_0_energy">   -144.53319445 </i>
   </energy>
  </scstep>
  <scstep>
   <time name="dav">   61.57   61.64</time>
   <time name="total">   61.58   61.65</time>
   <energy>
    <i name="e_fr_energy">   -152.07951939 </i>
    <i name="e_wo_entrp">   -152.07951939 </i>
    <i name="e_0_energy">   -152.07951939 </i>
   </energy>
  </scstep>
  <scstep>
   <time name="dav">   64.67   64.74</time>
   <time name="total">   64.68   64.75</time>
   <energy>
    <i name="e_fr_energy">   -152.20357751 </i>
    <i name="e_wo_entrp">   -152.20357751 </i>
    <i name="e_0_energy">   -152.20357751 </i>
   </energy>
  </scstep>
  <scstep>
   <time name="dav">   62.99   63.06</time>
   <time name="total">   63.00   63.07</time>
   <energy>
    <i name="e_fr_energy">   -152.20574094 </i>
    <i name="e_wo_entrp">   -152.20574094 </i>
    <i name="e_0_energy">   -152.20574094 </i>
   </energy>
  </scstep>
  <scstep>
   <time name="dav">   54.14   54.20</time>
   <time name="total">   54.15   54.21</time>
   <energy>
    <i name="e_fr_energy">   -152.20580924 </i>
    <i name="e_wo_entrp">   -152.20580924 </i>
    <i name="e_0_energy">   -152.20580924 </i>
   </energy>
  </scstep>
  <scstep>
   <time name="dav">   41.94   41.99</time>
   <time name="total">   41.95   42.00</time>
   <energy>
    <i name="e_fr_energy">   -152.20581179 </i>
    <i name="e_wo_entrp">   -152.20581179 </i>
    <i name="e_0_energy">   -152.20581179 </i>
   </energy>
  </scstep>
  <scstep>
   <time name="dav">   39.66   39.71</time>
   <time name="total">   39.68   39.72</time>
   <energy>
    <i name="e_fr_energy">   -152.20581271 </i>
    <i name="e_wo_entrp">   -152.20581271 </i>
    <i name="e_0_energy">   -152.20581271 </i>
   </energy>
  </scstep>
  <scstep>
   <time name="dav">   36.99   37.03</time>
   <time name="total">   39.04   39.08</time>
   <energy>
    <i name="e_fr_energy">   -152.20581315 </i>
    <i name="e_wo_entrp">   -152.20581315 </i>
    <i name="e_0_energy">   -152.20581315 </i>
   </energy>
  </scstep>
  <scstep>
   <time name="diag">    6.54    6.54</time>
   <time name="diis">   37.85   37.89</time>
   <time name="orth">    1.61    1.61</time>
   <time name="total">   48.70   48.75</time>
   <energy>
    <i name="e_fr_energy">   -103.80484635 </i>
    <i name="e_wo_entrp">   -103.80724291 </i>
    <i name="e_0_energy">   -103.80544549 </i>
   </energy>
  </scstep>
  <scstep>
   <time name="diag">    6.54    6.54</time>
   <time name="diis">   35.18   35.21</time>
   <time name="orth">    1.61    1.61</time>
   <time name="total">   45.95   45.99</time>
   <energy>
    <i name="e_fr_energy">   -108.86747001 </i>
    <i name="e_wo_entrp">   -108.87046206 </i>
    <i name="e_0_energy">   -108.86821802 </i>
   </energy>
  </scstep>
  <scstep>
   <time name="diag">    6.54    6.54</time>
   <time name="diis">   33.79   33.81</time>
   <time name="orth">    1.61    1.61</time>
   <time name="total">   44.62   44.66</time>
   <energy>
    <i name="e_fr_energy">   -118.08523114 </i>
    <i name="e_wo_entrp">   -118.08938005 </i>
    <i name="e_0_energy">   -118.08626837 </i>
   </energy>
  </scstep>
  <scstep>
   <time name="diag">    6.54    6.54</time>
   <time name="diis">   35.11   35.14</time>
   <time name="orth">    1.61    1.61</time>
   <time name="total">   45.95   45.99</time>
   <energy>
    <i name="e_fr_energy">   -123.66406898 </i>
    <i name="e_wo_entrp">   -123.66783487 </i>
    <i name="e_0_energy">   -123.66501045 </i>
   </energy>
  </scstep>
  <scstep>
   <time name="diag">    6.54    6.54</time>
   <time name="diis">   34.22   34.26</time>
   <time name="orth">    1.61    1.61</time>
   <time name="total">   45.06   45.10</time>
   <energy>
    <i name="e_fr_energy">   -125.03119374 </i>
    <i name="e_wo_entrp">   -125.03489488 </i>
    <i name="e_0_energy">   -125.03211902 </i>
   </energy>
  </scstep>
  <scstep>
   <time name="diag">    6.54    6.54</time>
   <time name="diis">   33.89   33.92</time>
   <time name="orth">    1.61    1.61</time>
   <time name="total">   44.65   44.69</time>
   <energy>
    <i name="e_fr_energy">   -125.60507017 </i>
    <i name="e_wo_entrp">   -125.60507017 </i>
    <i name="e_0_energy">   -125.60507017 </i>
   </energy>
  </scstep>
  <scstep>
   <time name="diag">    6.54    6.54</time>
   <time name="diis">   33.44   33.47</time>
   <time name="orth">    1.61    1.61</time>
   <time name="total">   44.26   44.30</time>
   <energy>
    <i name="e_fr_energy">   -125.85710818 </i>
    <i name="e_wo_entrp">   -125.86141284 </i>
    <i name="e_0_energy">   -125.85818435 </i>
   </energy>
  </scstep>
  <scstep>
   <time name="diag">    6.54    6.54</time>
   <time name="diis">   33.28   33.31</time>
   <time name="orth">    1.61    1.61</time>
   <time name="total">   44.08   44.12</time>
   <energy>
    <i name="e_fr_energy">   -125.86174135 </i>
    <i name="e_wo_entrp">   -125.86620254 </i>
    <i name="e_0_energy">   -125.86285665 </i>
   </energy>
  </scstep>
  <scstep>
   <time name="diag">    6.54    6.54</time>
   <time name="diis">   34.77   34.80</time>
   <time name="orth">    1.61    1.61</time>
   <time name="total">   45.57   45.61</time>
   <energy>
    <i name="e_fr_energy">   -125.86343979 </i>
    <i name="e_wo_entrp">   -125.86792194 </i>
    <i name="e_0_energy">   -125.86456033 </i>
   </energy>
  </scstep>
  <scstep>
   <time name="diag">    6.54    6.54</time>
   <time name="diis">   29.36   29.39</time>
   <time name="orth">    1.61    1.61</time>
   <time name="total">   40.15   40.18</time>
   <energy>
    <i name="e_fr_energy">   -125.86312758 </i>
    <i name="e_wo_entrp">   -125.86760178 </i>
    <i name="e_0_energy">   -125.86424613 </i>
   </energy>
  </scstep>
  <scstep>
   <time name="diag">    6.54    6.54</time>
   <time name="diis">   24.98   25.00</time>
   <time name="orth">    1.61    1.61</time>
   <time name="total">   33.57   33.60</time>
   <energy>
    <i name="alphaZ">    532.73731502 </i>
    <i name="ewald">  -5591.05299967 </i>
    <i name="hartreedc">  -2749.59676796 </i>
    <i name="XCdc">    384.83406407 </i>
    <i name="pawpsdc">  13728.96583445 </i>
    <i name="pawaedc"> -13706.08339228 </i>
    <i name="eentropy">      0.00448136 </i>
    <i name="bandstr">  -1219.22467023 </i>
    <i name="atom">   8493.55293326 </i>
    <i name="e_fr_energy">   -125.86320197 </i>
    <i name="e_wo_entrp">   -125.86768333 </i>
    <i name="e_0_energy">   -125.86432231 </i>
   </energy>
  </scstep>
  <structure>
   <crystal>
    <varray name="basis" >
     <v>       0.00000000      13.09307000       0.00000000 </v>
     <v>       3.87273000       0.00000000       0.00000000 </v>
     <v>       0.00000000      -0.05362000      -4.06059200 </v>
    </varray>
    <i name="volume">    205.89607333 </i>
    <varray name="rec_basis" >
     <v>       0.00000000       0.07637628      -0.00100855 </v>
     <v>       0.25821578       0.00000000       0.00000000 </v>
     <v>       0.00000000       0.00000000      -0.24626951 </v>
    </varray>
   </crystal>
   <varray name="positions" >
    <v>       0.85384000       0.00000000       0.93278400 </v>
    <v>       0.64616000       0.50000000       0.06721600 </v>
    <v>       0.35384000       0.50000000       0.93278400 </v>
    <v>       0.14616000       0.00000000       0.06721600 </v>
    <v>       0.85241700       0.00000000       0.48936600 </v>
    <v>       0.64758300       0.50000000       0.51063400 </v>
    <v>       0.00000000       0.00000000       0.00000000 </v>
    <v>       0.68503300       0.00000000       0.00308500 </v>
    <v>       0.81496700       0.50000000       0.99691500 </v>
    <v>       0.35241700       0.50000000       0.48936600 </v>
    <v>       0.14758300       0.00000000       0.51063400 </v>
    <v>       0.50000000       0.50000000       0.00000000 </v>
    <v>       0.18503300       0.50000000       0.00308500 </v>
    <v>       0.31496700       0.00000000       0.99691500 </v>
   </varray>
  </structure>
  <varray name="forces" >
   <v>       0.00000000       0.05294529       0.03271996 </v>
   <v>      -0.00000000      -0.05294529      -0.03271996 </v>
   <v>       0.00000000       0.05294529       0.03271996 </v>
   <v>       0.00000000      -0.05294529      -0.03271996 </v>
   <v>      -0.00000000      -0.03927081      -0.04957901 </v>
   <v>       0.00000000       0.03927081       0.04957901 </v>
   <v>      -0.00000000      -0.00000000      -0.00000000 </v>
   <v>      -0.00000000       0.00385732      -0.02299670 </v>
   <v>      -0.00000000      -0.00385732       0.02299670 </v>
   <v>      -0.00000000      -0.03927081      -0.04957901 </v>
   <v>      -0.00000000       0.03927081       0.04957901 </v>
   <v>      -0.00000000      -0.00000000      -0.00000000 </v>
   <v>       0.00000000       0.00385732      -0.02299670 </v>
   <v>      -0.00000000      -0.00385732       0.02299670 </v>
  </varray>
  <varray name="stress" >
   <v>    -143.74705649       0.00000000       0.00000000 </v>
   <v>       0.00000000    -144.90148649      -0.41761145 </v>
   <v>       0.00000000      -0.41761154    -149.10266076 </v>
  </varray>
  <energy>
   <i name="e_fr_energy">   -125.86320197 </i>
   <i name="e_wo_entrp">   -125.86432231 </i>
   <i name="e_0_energy">      0.00448136 </i>
  </energy>
  <time name="totalsc"> 1074.07 1075.07</time>
 </calculation>
 <calculation>
  <scstep>
   <time name="dav">   50.49   50.54</time>
   <time name="total">   53.11   53.17</time>
   <energy>
    <i name="alphaZ">    532.73731502 </i>
    <i name="ewald">  -5590.91880467 </i>
    <i name="hartreedc">  -2749.24737252 </i>
    <i name="XCdc">    384.84935238 </i>
    <i name="pawpsdc">  13727.58567517 </i>
    <i name="pawaedc"> -13704.69906150 </i>
    <i name="eentropy">      0.00442157 </i>
    <i name="bandstr">  -1219.72479763 </i>
    <i name="atom">   8493.55293326 </i>
    <i name="e_fr_energy">   -125.86033892 </i>
    <i name="e_wo_entrp">   -125.86476049 </i>
    <i name="e_0_energy">   -125.86144432 </i>
   </energy>
  </scstep>
  <scstep>
   <time name="diag">    6.54    6.54</time>
   <time name="diis">   41.60   41.64</time>
   <time name="orth">    1.61    1.61</time>
   <time name="total">   52.37   52.41</time>
   <energy>
    <i name="e_fr_energy">   -125.86322442 </i>
    <i name="e_wo_entrp">   -125.86761410 </i>
    <i name="e_0_energy">   -125.86432184 </i>
   </energy>
  </scstep>
  <scstep>
   <time name="diag">    6.54    6.54</time>
   <time name="diis">   31.02   31.05</time>
   <time name="orth">    1.61    1.61</time>
   <time name="total">   41.79   41.82</time>
   <energy>
    <i name="e_fr_energy">   -125.86339198 </i>
    <i name="e_wo_entrp">   -125.86777856 </i>
    <i name="e_0_energy">   -125.86448863 </i>
   </energy>
  </scstep>
  <scstep>
   <time name="diag">    6.54    6.54</time>
   <time name="diis">   22.72   22.74</time>
   <time name="orth">    1.61    1.61</time>
   <time name="total">   31.31   31.33</time>
   <energy>
    <i name="alphaZ">    532.73731502 </i>
    <i name="ewald">  -5590.91880467 </i>
    <i name="hartreedc">  -2749.69242028 </i>
    <i name="XCdc">    384.86215768 </i>
    <i name="pawpsdc">  13744.01636584 </i>
    <i name="pawaedc"> -13721.13323465 </i>
    <i name="eentropy">      0.00439565 </i>
    <i name="bandstr">  -1219.29209088 </i>
    <i name="atom">   8493.55293326 </i>
    <i name="e_fr_energy">   -125.86338303 </i>
    <i name="e_wo_entrp">   -125.86777867 </i>
    <i name="e_0_energy">   -125.86448194 </i>
   </energy>
  </scstep>
  <structure>
   <crystal>
    <varray name="basis" >
     <v>       0.00000000      13.09307000       0.00000000 </v>
     <v>       3.87273000       0.00000000       0.00000000 </v>
     <v>       0.00000000      -0.05362000      -4.06059200 </v>
    </varray>
    <i name="volume">    205.89607333 </i>
    <varray name="rec_basis" >
     <v>       0.00000000       0.07637628      -0.00100855 </v>
     <v>       0.25821578       0.00000000       0.00000000 </v>
     <v>       0.00000000       0.00000000      -0.24626951 </v>
    </varray>
   </crystal>
   <varray name="positions" >
    <v>       0.85403349       0.00000000       0.93239526 </v>
    <v>       0.64596651       0.50000000       0.06760474 </v>
    <v>       0.35403349       0.50000000       0.93239526 </v>
    <v>       0.14596651       0.00000000       0.06760474 </v>
    <v>       0.85227472      -0.00000000       0.48995503 </v>
    <v>       0.64772528       0.50000000       0.51004497 </v>
    <v>      -0.00000000      -0.00000000       0.00000000 </v>
    <v>       0.68504833      -0.00000000       0.00335822 </v>
    <v>       0.81495167       0.50000000       0.99664178 </v>
    <v>       0.35227472       0.50000000       0.48995503 </v>
    <v>       0.14772528      -0.00000000       0.51004497 </v>
    <v>       0.50000000       0.50000000       0.00000000 </v>
    <v>       0.18504833       0.50000000       0.00335822 </v>
    <v>       0.31495167      -0.00000000       0.99664178 </v>
   </varray>
  </structure>
  <varray name="forces" >
   <v>      -0.00000000      -0.06155476      -0.06908723 </v>
   <v>      -0.00000000       0.06155476       0.06908723 </v>
   <v>      -0.00000000      -0.06155476      -0.06908723 </v>
   <v>      -0.00000000       0.06155476       0.06908723 </v>
   <v>      -0.00000000      -0.03316614       0.05093755 </v>
   <v>       0.00000000       0.03316614      -0.05093755 </v>
   <v>      -0.00000000       0.00000000       0.00000000 </v>
   <v>       0.00000000      -0.00940299      -0.02253725 </v>
   <v>       0.00000000       0.00940299       0.02253725 </v>
   <v>       0.00000000      -0.03316614       0.05093755 </v>
   <v>      -0.00000000       0.03316614      -0.05093755 </v>
   <v>      -0.00000000       0.00000000       0.00000000 </v>
   <v>      -0.00000000      -0.00940299      -0.02253725 </v>
   <v>      -0.00000000       0.00940299       0.02253725 </v>
  </varray>
  <varray name="stress" >
   <v>    -144.09262049       0.00000000       0.00000000 </v>
   <v>       0.00000000    -139.25734798      -0.76554932 </v>
   <v>       0.00000000      -0.76554948    -140.79774115 </v>
  </varray>
  <energy>
   <i name="e_fr_energy">   -125.86338303 </i>
   <i name="e_wo_entrp">   -125.86448194 </i>
   <i name="e_0_energy">      0.00439565 </i>
  </energy>
  <time name="totalsc">  251.10  251.30</time>
 </calculation>
 <calculation>
  <scstep>
   <time name="dav">   49.57   49.62</time>
   <time name="total">   52.20   52.25</time>
   <energy>
    <i name="alphaZ">    532.73731502 </i>
    <i name="ewald">  -5590.98050400 </i>
    <i name="hartreedc">  -2750.14455946 </i>
    <i name="XCdc">    384.87346435 </i>
    <i name="pawpsdc">  13765.40379525 </i>
    <i name="pawaedc"> -13742.53923241 </i>
    <i name="eentropy">      0.00443878 </i>
    <i name="bandstr">  -1218.77075222 </i>
    <i name="atom">   8493.55293326 </i>
    <i name="e_fr_energy">   -125.86310143 </i>
    <i name="e_wo_entrp">   -125.86754021 </i>
    <i name="e_0_energy">   -125.86421112 </i>
   </energy>
  </scstep>
  <scstep>
   <time name="diag">    6.54    6.54</time>
   <time name="diis">   40.38   40.42</time>
   <time name="orth">    1.61    1.61</time>
   <time name="total">   51.15   51.19</time>
   <energy>
    <i name="e_fr_energy">   -125.86371114 </i>
    <i name="e_wo_entrp">   -125.86814943 </i>
    <i name="e_0_energy">   -125.86482071 </i>
   </energy>
  </scstep>
  <scstep>
   <time name="diag">    6.54    6.54</time>
   <time name="diis">   22.10   22.12</time>
   <time name="orth">    1.61    1.61</time>
   <time name="total">   32.88   32.90</time>
   <energy>
    <i name="e_fr_energy">   -125.86370241 </i>
    <i name="e_wo_entrp">   -125.86814234 </i>
    <i name="e_0_energy">   -125.86481239 </i>
   </energy>
  </scstep>
  <scstep>
   <time name="diag">    6.54    6.54</time>
   <time name="diis">   19.04   19.05</time>
   <time name="orth">    1.61    1.61</time>
   <time name="total">   27.62   27.64</time>
   <energy>
    <i name="alphaZ">    532.73731502 </i>
    <i name="ewald">  -5590.98050400 </i>
    <i name="hartreedc">  -2749.96186775 </i>
    <i name="XCdc">    384.86669730 </i>
    <i name="pawpsdc">  13764.46679139 </i>
    <i name="pawaedc"> -13741.60630684 </i>
    <i name="eentropy">      0.00444001 </i>
    <i name="bandstr">  -1218.94321758 </i>
    <i name="atom">   8493.55293326 </i>
    <i name="e_fr_energy">   -125.86371920 </i>
    <i name="e_wo_entrp">   -125.86815921 </i>
    <i name="e_0_energy">   -125.86482920 </i>
   </energy>
  </scstep>
  <structure>
   <crystal>
    <varray name="basis" >
     <v>       0.00000000      13.09307000       0.00000000 </v>
     <v>       3.87273000       0.00000000       0.00000000 </v>
     <v>       0.00000000      -0.05362000      -4.06059200 </v>
    </varray>
    <i name="volume">    205.89607333 </i>
    <varray name="rec_basis" >
     <v>       0.00000000       0.07637628      -0.00100855 </v>
     <v>       0.25821578       0.00000000       0.00000000 </v>
     <v>       0.00000000       0.00000000      -0.24626951 </v>
    </varray>
   </crystal>
   <varray name="positions" >
    <v>       0.85395096       0.00000000       0.93256107 </v>
    <v>       0.64604904       0.50000000       0.06743893 </v>
    <v>       0.35395096       0.50000000       0.93256107 </v>
    <v>       0.14604904       0.00000000       0.06743893 </v>
    <v>       0.85233540      -0.00000000       0.48970380 </v>
    <v>       0.64766460       0.50000000       0.51029620 </v>
    <v>      -0.00000000      -0.00000000       0.00000000 </v>
    <v>       0.68504179      -0.00000000       0.00324169 </v>
    <v>       0.81495821       0.50000000       0.99675831 </v>
    <v>       0.35233540       0.50000000       0.48970380 </v>
    <v>       0.14766460      -0.00000000       0.51029620 </v>
    <v>       0.50000000       0.50000000       0.00000000 </v>
    <v>       0.18504179       0.50000000       0.00324169 </v>
    <v>       0.31495821      -0.00000000       0.99675831 </v>
   </varray>
  </structure>
  <varray name="forces" >
   <v>       0.00000000      -0.00316569      -0.01298283 </v>
   <v>       0.00000000       0.00316569       0.01298283 </v>
   <v>      -0.00000000      -0.00316569      -0.01298283 </v>
   <v>       0.00000000       0.00316569       0.01298283 </v>
   <v>       0.00000000      -0.03582203       0.01042460 </v>
   <v>       0.00000000       0.03582203      -0.01042460 </v>
   <v>       0.00000000       0.00000000       0.00000000 </v>
   <v>       0.00000000      -0.00183081      -0.02099077 </v>
   <v>      -0.00000000       0.00183081       0.02099077 </v>
   <v>       0.00000000      -0.03582203       0.01042460 </v>
   <v>       0.00000000       0.03582203      -0.01042460 </v>
   <v>       0.00000000       0.00000000      -0.00000000 </v>
   <v>       0.00000000      -0.00183081      -0.02099077 </v>
   <v>      -0.00000000       0.00183081       0.02099077 </v>
  </varray>
  <varray name="stress" >
   <v>    -145.80278475       0.00000000       0.00000000 </v>
   <v>       0.00000000    -143.97531350      -0.85941378 </v>
   <v>       0.00000000      -0.85941394    -145.73356446 </v>
  </varray>
  <energy>
   <i name="e_fr_energy">   -125.86371920 </i>
   <i name="e_wo_entrp">   -125.86482920 </i>
   <i name="e_0_energy">      0.00444001 </i>
  </energy>
  <time name="totalsc">  236.37  236.56</time>
 </calculation>
 <calculation>
  <scstep>
   <time name="dav">   48.78   48.83</time>
   <time name="total">   51.40   51.45</time>
   <energy>
    <i name="alphaZ">    532.73731502 </i>
    <i name="ewald">  -5590.97404628 </i>
    <i name="hartreedc">  -2749.75473406 </i>
    <i name="XCdc">    384.85694896 </i>
    <i name="pawpsdc">  13759.12391474 </i>
    <i name="pawaedc"> -13736.25946410 </i>
    <i name="eentropy">      0.00443939 </i>
    <i name="bandstr">  -1219.15097018 </i>
    <i name="atom">   8493.55293326 </i>
    <i name="e_fr_energy">   -125.86366325 </i>
    <i name="e_wo_entrp">   -125.86810264 </i>
    <i name="e_0_energy">   -125.86477310 </i>
   </energy>
  </scstep>
  <scstep>
   <time name="diag">    6.54    6.54</time>
   <time name="diis">   18.31   18.33</time>
   <time name="orth">    1.61    1.61</time>
   <time name="total">   29.08   29.10</time>
   <energy>
    <i name="e_fr_energy">   -125.86366854 </i>
    <i name="e_wo_entrp">   -125.86810428 </i>
    <i name="e_0_energy">   -125.86477747 </i>
   </energy>
  </scstep>
  <scstep>
   <time name="diag">    6.54    6.54</time>
   <time name="diis">   16.90   16.92</time>
   <time name="orth">    1.61    1.61</time>
   <time name="total">   27.67   27.69</time>
   <energy>
    <i name="e_fr_energy">   -125.86367054 </i>
    <i name="e_wo_entrp">   -125.86810589 </i>
    <i name="e_0_energy">   -125.86477938 </i>
   </energy>
  </scstep>
  <scstep>
   <time name="diag">    6.54    6.54</time>
   <time name="diis">   16.31   16.32</time>
   <time name="orth">    1.61    1.61</time>
   <time name="total">   24.90   24.91</time>
   <energy>
    <i name="alphaZ">    532.73731502 </i>
    <i name="ewald">  -5590.97404628 </i>
    <i name="hartreedc">  -2749.79337592 </i>
    <i name="XCdc">    384.85878470 </i>
    <i name="pawpsdc">  13756.88909661 </i>
    <i name="pawaedc"> -13734.02314711 </i>
    <i name="eentropy">      0.00443551 </i>
    <i name="bandstr">  -1219.11566752 </i>
    <i name="atom">   8493.55293326 </i>
    <i name="e_fr_energy">   -125.86367174 </i>
    <i name="e_wo_entrp">   -125.86810725 </i>
    <i name="e_0_energy">   -125.86478062 </i>
   </energy>
  </scstep>
  <structure>
   <crystal>
    <varray name="basis" >
     <v>       0.00000000      13.09307000       0.00000000 </v>
     <v>       3.87273000       0.00000000       0.00000000 </v>
     <v>       0.00000000      -0.05362000      -4.06059200 </v>
    </varray>
    <i name="volume">    205.89607333 </i>
    <varray name="rec_basis" >
     <v>       0.00000000       0.07637628      -0.00100855 </v>
     <v>       0.25821578       0.00000000       0.00000000 </v>
     <v>       0.00000000       0.00000000      -0.24626951 </v>
    </varray>
   </crystal>
   <varray name="positions" >
    <v>       0.85396004       0.00000000       0.93254284 </v>
    <v>       0.64603996       0.50000000       0.06745716 </v>
    <v>       0.35396004       0.50000000       0.93254284 </v>
    <v>       0.14603996       0.00000000       0.06745716 </v>
    <v>       0.85232873      -0.00000000       0.48973142 </v>
    <v>       0.64767127       0.50000000       0.51026858 </v>
    <v>      -0.00000000      -0.00000000       0.00000000 </v>
    <v>       0.68504251      -0.00000000       0.00325450 </v>
    <v>       0.81495749       0.50000000       0.99674550 </v>
    <v>       0.35232873       0.50000000       0.48973142 </v>
    <v>       0.14767127      -0.00000000       0.51026858 </v>
    <v>       0.50000000       0.50000000       0.00000000 </v>
    <v>       0.18504251       0.50000000       0.00325450 </v>
    <v>       0.31495749      -0.00000000       0.99674550 </v>
   </varray>
  </structure>
  <varray name="forces" >
   <v>       0.00000000      -0.02680192      -0.03245626 </v>
   <v>       0.00000000       0.02680192       0.03245626 </v>
   <v>       0.00000000      -0.02680192      -0.03245626 </v>
   <v>       0.00000000       0.02680192       0.03245626 </v>
   <v>      -0.00000000      -0.03306762       0.02261246 </v>
   <v>       0.00000000       0.03306762      -0.02261246 </v>
   <v>       0.00000000       0.00000000       0.00000000 </v>
   <v>       0.00000000      -0.00181688      -0.01792852 </v>
   <v>      -0.00000000       0.00181688       0.01792852 </v>
   <v>      -0.00000000      -0.03306762       0.02261246 </v>
   <v>       0.00000000       0.03306762      -0.02261246 </v>
   <v>       0.00000000       0.00000000       0.00000000 </v>
   <v>       0.00000000      -0.00181688      -0.01792852 </v>
   <v>      -0.00000000       0.00181688       0.01792852 </v>
  </varray>
  <varray name="stress" >
   <v>    -144.94649658       0.00000000       0.00000000 </v>
   <v>       0.00000000    -142.58236836      -0.74895215 </v>
   <v>       0.00000000      -0.74895253    -144.65847529 </v>
  </varray>
  <energy>
   <i name="e_fr_energy">   -125.86367174 </i>
   <i name="e_wo_entrp">   -125.86478062 </i>
   <i name="e_0_energy">      0.00443551 </i>
  </energy>
  <time name="totalsc">  205.58  205.74</time>
 </calculation>
 <calculation>
  <scstep>
   <time name="dav">   40.66   40.71</time>
   <time name="total">   43.28   43.33</time>
   <energy>
    <i name="alphaZ">    532.73731502 </i>
    <i name="ewald">  -5590.97864322 </i>
    <i name="hartreedc">  -2749.80411355 </i>
    <i name="XCdc">    384.85829065 </i>
    <i name="pawpsdc">  13756.92299712 </i>
    <i name="pawaedc"> -13734.05699273 </i>
    <i name="eentropy">      0.00443900 </i>
    <i name="bandstr">  -1219.09990005 </i>
    <i name="atom">   8493.55293326 </i>
    <i name="e_fr_energy">   -125.86367451 </i>
    <i name="e_wo_entrp">   -125.86811351 </i>
    <i name="e_0_energy">   -125.86478426 </i>
   </energy>
  </scstep>
  <scstep>
   <time name="diag">    6.54    6.54</time>
   <time name="diis">   16.86   16.88</time>
   <time name="orth">    1.61    1.61</time>
   <time name="total">   27.64   27.65</time>
   <energy>
    <i name="e_fr_energy">   -125.86367771 </i>
    <i name="e_wo_entrp">   -125.86811761 </i>
    <i name="e_0_energy">   -125.86478768 </i>
   </energy>
  </scstep>
  <scstep>
   <time name="diag">    6.54    6.54</time>
   <time name="diis">   16.62   16.63</time>
   <time name="orth">    1.61    1.61</time>
   <time name="total">   27.38   27.40</time>
   <energy>
    <i name="e_fr_energy">   -125.86367866 </i>
    <i name="e_wo_entrp">   -125.86811872 </i>
    <i name="e_0_energy">   -125.86478868 </i>
   </energy>
  </scstep>
  <scstep>
   <time name="diag">    6.54    6.54</time>
   <time name="diis">   15.03   15.04</time>
   <time name="orth">    1.61    1.61</time>
   <time name="total">   23.62   23.63</time>
   <energy>
    <i name="alphaZ">    532.73731502 </i>
    <i name="ewald">  -5590.97864322 </i>
    <i name="hartreedc">  -2749.78134518 </i>
    <i name="XCdc">    384.85759266 </i>
    <i name="pawpsdc">  13755.44206638 </i>
    <i name="pawaedc"> -13732.57545101 </i>
    <i name="eentropy">      0.00444033 </i>
    <i name="bandstr">  -1219.12258698 </i>
    <i name="atom">   8493.55293326 </i>
    <i name="e_fr_energy">   -125.86367875 </i>
    <i name="e_wo_entrp">   -125.86811907 </i>
    <i name="e_0_energy">   -125.86478883 </i>
   </energy>
  </scstep>
  <structure>
   <crystal>
    <varray name="basis" >
     <v>       0.00000000      13.09307000       0.00000000 </v>
     <v>       3.87273000       0.00000000       0.00000000 </v>
     <v>       0.00000000      -0.05362000      -4.06059200 </v>
    </varray>
    <i name="volume">    205.89607333 </i>
    <varray name="rec_basis" >
     <v>       0.00000000       0.07637628      -0.00100855 </v>
     <v>       0.25821578       0.00000000       0.00000000 </v>
     <v>       0.00000000       0.00000000      -0.24626951 </v>
    </varray>
   </crystal>
   <varray name="positions" >
    <v>       0.85395359       0.00000000       0.93255579 </v>
    <v>       0.64604641       0.50000000       0.06744421 </v>
    <v>       0.35395359       0.50000000       0.93255579 </v>
    <v>       0.14604641       0.00000000       0.06744421 </v>
    <v>       0.85233347      -0.00000000       0.48971179 </v>
    <v>       0.64766653       0.50000000       0.51028821 </v>
    <v>      -0.00000000      -0.00000000       0.00000000 </v>
    <v>       0.68504200      -0.00000000       0.00324539 </v>
    <v>       0.81495800       0.50000000       0.99675461 </v>
    <v>       0.35233347       0.50000000       0.48971179 </v>
    <v>       0.14766653      -0.00000000       0.51028821 </v>
    <v>       0.50000000       0.50000000       0.00000000 </v>
    <v>       0.18504200       0.50000000       0.00324539 </v>
    <v>       0.31495800      -0.00000000       0.99675461 </v>
   </varray>
  </structure>
  <varray name="forces" >
   <v>       0.00000000      -0.01472742      -0.02315015 </v>
   <v>      -0.00000000       0.01472742       0.02315015 </v>
   <v>      -0.00000000      -0.01472742      -0.02315015 </v>
   <v>       0.00000000       0.01472742       0.02315015 </v>
   <v>       0.00000000      -0.03478022       0.01277315 </v>
   <v>       0.00000000       0.03478022      -0.01277315 </v>
   <v>       0.00000000       0.00000000       0.00000000 </v>
   <v>      -0.00000000      -0.00304702      -0.02111905 </v>
   <v>       0.00000000       0.00304702       0.02111905 </v>
   <v>       0.00000000      -0.03478022       0.01277315 </v>
   <v>       0.00000000       0.03478022      -0.01277315 </v>
   <v>       0.00000000       0.00000000       0.00000000 </v>
   <v>      -0.00000000      -0.00304702      -0.02111905 </v>
   <v>       0.00000000       0.00304702       0.02111905 </v>
  </varray>
  <varray name="stress" >
   <v>    -144.92439155       0.00000000       0.00000000 </v>
   <v>       0.00000000    -142.76067733      -0.73744319 </v>
   <v>       0.00000000      -0.73744301    -144.98503807 </v>
  </varray>
  <energy>
   <i name="e_fr_energy">   -125.86367875 </i>
   <i name="e_wo_entrp">   -125.86478883 </i>
   <i name="e_0_energy">      0.00444033 </i>
  </energy>
  <time name="totalsc">  194.45  194.60</time>
 </calculation>
 <calculation>
  <scstep>
   <time name="dav">   48.03   48.08</time>
   <time name="total">   50.65   50.70</time>
   <energy>
    <i name="alphaZ">    532.73731502 </i>
    <i name="ewald">  -5590.10059182 </i>
    <i name="hartreedc">  -2750.63487121 </i>
    <i name="XCdc">    384.85858487 </i>
    <i name="pawpsdc">  13755.26103427 </i>
    <i name="pawaedc"> -13732.39412901 </i>
    <i name="eentropy">      0.00441979 </i>
    <i name="bandstr">  -1219.14834474 </i>
    <i name="atom">   8493.55293326 </i>
    <i name="e_fr_energy">   -125.86364958 </i>
    <i name="e_wo_entrp">   -125.86806937 </i>
    <i name="e_0_energy">   -125.86475453 </i>
   </energy>
  </scstep>
  <scstep>
   <time name="diag">    6.54    6.54</time>
   <time name="diis">   33.25   33.28</time>
   <time name="orth">    1.61    1.61</time>
   <time name="total">   44.02   44.05</time>
   <energy>
    <i name="e_fr_energy">   -125.86401189 </i>
    <i name="e_wo_entrp">   -125.86841790 </i>
    <i name="e_0_energy">   -125.86511339 </i>
   </energy>
  </scstep>
  <scstep>
   <time name="diag">    6.54    6.54</time>
   <time name="diis">   22.45   22.47</time>
   <time name="orth">    1.61    1.61</time>
   <time name="total">   33.22   33.24</time>
   <energy>
    <i name="e_fr_energy">   -125.86402366 </i>
    <i name="e_wo_entrp">   -125.86842725 </i>
    <i name="e_0_energy">   -125.86512456 </i>
   </energy>
  </scstep>
  <scstep>
   <time name="diag">    6.54    6.54</time>
   <time name="diis">   17.58   17.59</time>
   <time name="orth">    1.61    1.61</time>
   <time name="total">   26.16   26.18</time>
   <energy>
    <i name="alphaZ">    532.73731502 </i>
    <i name="ewald">  -5590.10059182 </i>
    <i name="hartreedc">  -2750.65448492 </i>
    <i name="XCdc">    384.85819613 </i>
    <i name="pawpsdc">  13755.67761200 </i>
    <i name="pawaedc"> -13732.81290600 </i>
    <i name="eentropy">      0.00440200 </i>
    <i name="bandstr">  -1219.12650016 </i>
    <i name="atom">   8493.55293326 </i>
    <i name="e_fr_energy">   -125.86402449 </i>
    <i name="e_wo_entrp">   -125.86842649 </i>
    <i name="e_0_energy">   -125.86512499 </i>
   </energy>
  </scstep>
  <structure>
   <crystal>
    <varray name="basis" >
     <v>       0.00000000      13.09307000       0.00000000 </v>
     <v>       3.87273000       0.00000000       0.00000000 </v>
     <v>       0.00000000      -0.05362000      -4.06059200 </v>
    </varray>
    <i name="volume">    205.89607333 </i>
    <varray name="rec_basis" >
     <v>       0.00000000       0.07637628      -0.00100855 </v>
     <v>       0.25821578       0.00000000       0.00000000 </v>
     <v>       0.00000000       0.00000000      -0.24626951 </v>
    </varray>
   </crystal>
   <varray name="positions" >
    <v>       0.85396624       0.00000000       0.93268476 </v>
    <v>       0.64603376       0.50000000       0.06731524 </v>
    <v>       0.35396624       0.50000000       0.93268476 </v>
    <v>       0.14603376       0.00000000       0.06731524 </v>
    <v>       0.85217018       0.00000000       0.48975949 </v>
    <v>       0.64782982       0.50000000       0.51024051 </v>
    <v>       0.00000000       0.00000000      -0.00000000 </v>
    <v>       0.68503751      -0.00000000       0.00356228 </v>
    <v>       0.81496249       0.50000000       0.99643772 </v>
    <v>       0.35217018       0.50000000       0.48975949 </v>
    <v>       0.14782982       0.00000000       0.51024051 </v>
    <v>       0.50000000       0.50000000      -0.00000000 </v>
    <v>       0.18503751       0.50000000       0.00356228 </v>
    <v>       0.31496249      -0.00000000       0.99643772 </v>
   </varray>
  </structure>
  <varray name="forces" >
   <v>      -0.00000000      -0.03491600      -0.01351889 </v>
   <v>      -0.00000000       0.03491600       0.01351889 </v>
   <v>       0.00000000      -0.03491600      -0.01351889 </v>
   <v>      -0.00000000       0.03491600       0.01351889 </v>
   <v>      -0.00000000      -0.02123611       0.01273300 </v>
   <v>      -0.00000000       0.02123611      -0.01273300 </v>
   <v>      -0.00000000       0.00000000      -0.00000000 </v>
   <v>      -0.00000000      -0.00222588      -0.00931421 </v>
   <v>       0.00000000       0.00222588       0.00931421 </v>
   <v>      -0.00000000      -0.02123611       0.01273300 </v>
   <v>      -0.00000000       0.02123611      -0.01273300 </v>
   <v>       0.00000000       0.00000000      -0.00000000 </v>
   <v>      -0.00000000      -0.00222588      -0.00931421 </v>
   <v>      -0.00000000       0.00222588       0.00931421 </v>
  </varray>
  <varray name="stress" >
   <v>    -144.93134426       0.00000000       0.00000000 </v>
   <v>       0.00000000    -142.14398908      -0.63139877 </v>
   <v>       0.00000000      -0.63139917    -145.60386131 </v>
  </varray>
  <energy>
   <i name="e_fr_energy">   -125.86402449 </i>
   <i name="e_wo_entrp">   -125.86512499 </i>
   <i name="e_0_energy">      0.00440200 </i>
  </energy>
  <time name="totalsc">  226.58  226.76</time>
 </calculation>
 <calculation>
  <scstep>
   <time name="dav">   47.73   47.78</time>
   <time name="total">   50.34   50.40</time>
   <energy>
    <i name="alphaZ">    532.73731502 </i>
    <i name="ewald">  -5589.15504519 </i>
    <i name="hartreedc">  -2751.58777098 </i>
    <i name="XCdc">    384.85942483 </i>
    <i name="pawpsdc">  13754.49431090 </i>
    <i name="pawaedc"> -13731.62964971 </i>
    <i name="eentropy">      0.00436838 </i>
    <i name="bandstr">  -1219.13966079 </i>
    <i name="atom">   8493.55293326 </i>
    <i name="e_fr_energy">   -125.86377428 </i>
    <i name="e_wo_entrp">   -125.86814266 </i>
    <i name="e_0_energy">   -125.86486638 </i>
   </energy>
  </scstep>
  <scstep>
   <time name="diag">    6.54    6.54</time>
   <time name="diis">   33.72   33.75</time>
   <time name="orth">    1.61    1.61</time>
   <time name="total">   44.49   44.52</time>
   <energy>
    <i name="e_fr_energy">   -125.86418690 </i>
    <i name="e_wo_entrp">   -125.86853165 </i>
    <i name="e_0_energy">   -125.86527308 </i>
   </energy>
  </scstep>
  <scstep>
   <time name="diag">    6.54    6.54</time>
   <time name="diis">   23.04   23.06</time>
   <time name="orth">    1.61    1.61</time>
   <time name="total">   33.81   33.84</time>
   <energy>
    <i name="e_fr_energy">   -125.86419385 </i>
    <i name="e_wo_entrp">   -125.86853404 </i>
    <i name="e_0_energy">   -125.86527890 </i>
   </energy>
  </scstep>
  <scstep>
   <time name="diag">    6.54    6.54</time>
   <time name="diis">   18.26   18.28</time>
   <time name="orth">    1.61    1.61</time>
   <time name="total">   26.85   26.87</time>
   <energy>
    <i name="alphaZ">    532.73731502 </i>
    <i name="ewald">  -5589.15504519 </i>
    <i name="hartreedc">  -2751.61547998 </i>
    <i name="XCdc">    384.85843672 </i>
    <i name="pawpsdc">  13754.94116457 </i>
    <i name="pawaedc"> -13732.07874295 </i>
    <i name="eentropy">      0.00433502 </i>
    <i name="bandstr">  -1219.10910748 </i>
    <i name="atom">   8493.55293326 </i>
    <i name="e_fr_energy">   -125.86419100 </i>
    <i name="e_wo_entrp">   -125.86852603 </i>
    <i name="e_0_energy">   -125.86527476 </i>
   </energy>
  </scstep>
  <structure>
   <crystal>
    <varray name="basis" >
     <v>       0.00000000      13.09307000       0.00000000 </v>
     <v>       3.87273000       0.00000000       0.00000000 </v>
     <v>       0.00000000      -0.05362000      -4.06059200 </v>
    </varray>
    <i name="volume">    205.89607333 </i>
    <varray name="rec_basis" >
     <v>       0.00000000       0.07637628      -0.00100855 </v>
     <v>       0.25821578       0.00000000       0.00000000 </v>
     <v>       0.00000000       0.00000000      -0.24626951 </v>
    </varray>
   </crystal>
   <varray name="positions" >
    <v>       0.85397990       0.00000000       0.93282404 </v>
    <v>       0.64602010       0.50000000       0.06717596 </v>
    <v>       0.35397990       0.50000000       0.93282404 </v>
    <v>       0.14602010       0.00000000       0.06717596 </v>
    <v>       0.85199383       0.00000000       0.48981100 </v>
    <v>       0.64800617       0.50000000       0.51018900 </v>
    <v>       0.00000000       0.00000000      -0.00000000 </v>
    <v>       0.68503266      -0.00000000       0.00390451 </v>
    <v>       0.81496734       0.50000000       0.99609549 </v>
    <v>       0.35199383       0.50000000       0.48981100 </v>
    <v>       0.14800617       0.00000000       0.51018900 </v>
    <v>       0.50000000       0.50000000      -0.00000000 </v>
    <v>       0.18503266       0.50000000       0.00390451 </v>
    <v>       0.31496734      -0.00000000       0.99609549 </v>
   </varray>
  </structure>
  <varray name="forces" >
   <v>       0.00000000      -0.05280530      -0.00224999 </v>
   <v>       0.00000000       0.05280530       0.00224999 </v>
   <v>      -0.00000000      -0.05280530      -0.00224999 </v>
   <v>       0.00000000       0.05280530       0.00224999 </v>
   <v>       0.00000000      -0.01138010       0.00885854 </v>
   <v>       0.00000000       0.01138010      -0.00885854 </v>
   <v>       0.00000000       0.00000000      -0.00000000 </v>
   <v>       0.00000000      -0.00393632      -0.00250669 </v>
   <v>       0.00000000       0.00393632       0.00250669 </v>
   <v>      -0.00000000      -0.01138010       0.00885854 </v>
   <v>      -0.00000000       0.01138010      -0.00885854 </v>
   <v>      -0.00000000       0.00000000      -0.00000000 </v>
   <v>      -0.00000000      -0.00393632      -0.00250669 </v>
   <v>       0.00000000       0.00393632       0.00250669 </v>
  </varray>
  <varray name="stress" >
   <v>    -144.77871513       0.00000000       0.00000000 </v>
   <v>       0.00000000    -141.59400670      -0.60697818 </v>
   <v>       0.00000000      -0.60697787    -146.30321639 </v>
  </varray>
  <energy>
   <i name="e_fr_energy">   -125.86419100 </i>
   <i name="e_wo_entrp">   -125.86527476 </i>
   <i name="e_0_energy">      0.00433502 </i>
  </energy>
  <time name="totalsc">  228.02  228.20</time>
 </calculation>
 <calculation>
  <scstep>
   <time name="dav">   47.79   47.84</time>
   <time name="total">   50.41   50.46</time>
   <energy>
    <i name="alphaZ">    532.73731502 </i>
    <i name="ewald">  -5587.17329758 </i>
    <i name="hartreedc">  -2753.64228166 </i>
    <i name="XCdc">    384.85977906 </i>
    <i name="pawpsdc">  13753.40524985 </i>
    <i name="pawaedc"> -13730.54304473 </i>
    <i name="eentropy">      0.00439930 </i>
    <i name="bandstr">  -1219.06436482 </i>
    <i name="atom">   8493.55293326 </i>
    <i name="e_fr_energy">   -125.86331229 </i>
    <i name="e_wo_entrp">   -125.86771160 </i>
    <i name="e_0_energy">   -125.86441212 </i>
   </energy>
  </scstep>
  <scstep>
   <time name="diag">    6.54    6.54</time>
   <time name="diis">   40.97   41.01</time>
   <time name="orth">    1.61    1.61</time>
   <time name="total">   51.74   51.78</time>
   <energy>
    <i name="e_fr_energy">   -125.86429161 </i>
    <i name="e_wo_entrp">   -125.86872732 </i>
    <i name="e_0_energy">   -125.86540053 </i>
   </energy>
  </scstep>
  <scstep>
   <time name="diag">    6.54    6.54</time>
   <time name="diis">   24.52   24.55</time>
   <time name="orth">    1.61    1.61</time>
   <time name="total">   35.29   35.32</time>
   <energy>
    <i name="e_fr_energy">   -125.86432257 </i>
    <i name="e_wo_entrp">   -125.86875254 </i>
    <i name="e_0_energy">   -125.86543007 </i>
   </energy>
  </scstep>
  <scstep>
   <time name="diag">    6.54    6.54</time>
   <time name="diis">   19.84   19.86</time>
   <time name="orth">    1.61    1.61</time>
   <time name="total">   28.43   28.45</time>
   <energy>
    <i name="alphaZ">    532.73731502 </i>
    <i name="ewald">  -5587.17329758 </i>
    <i name="hartreedc">  -2753.45569450 </i>
    <i name="XCdc">    384.85433551 </i>
    <i name="pawpsdc">  13749.87179975 </i>
    <i name="pawaedc"> -13727.00798904 </i>
    <i name="eentropy">      0.00442871 </i>
    <i name="bandstr">  -1219.24816288 </i>
    <i name="atom">   8493.55293326 </i>
    <i name="e_fr_energy">   -125.86433175 </i>
    <i name="e_wo_entrp">   -125.86876046 </i>
    <i name="e_0_energy">   -125.86543893 </i>
   </energy>
  </scstep>
  <structure>
   <crystal>
    <varray name="basis" >
     <v>       0.00000000      13.09307000       0.00000000 </v>
     <v>       3.87273000       0.00000000       0.00000000 </v>
     <v>       0.00000000      -0.05362000      -4.06059200 </v>
    </varray>
    <i name="volume">    205.89607333 </i>
    <varray name="rec_basis" >
     <v>       0.00000000       0.07637628      -0.00100855 </v>
     <v>       0.25821578       0.00000000       0.00000000 </v>
     <v>       0.00000000       0.00000000      -0.24626951 </v>
    </varray>
   </crystal>
   <varray name="positions" >
    <v>       0.85383733       0.00000000       0.93291224 </v>
    <v>       0.64616267       0.50000000       0.06708776 </v>
    <v>       0.35383733       0.50000000       0.93291224 </v>
    <v>       0.14616267       0.00000000       0.06708776 </v>
    <v>       0.85187562       0.00000000       0.48975528 </v>
    <v>       0.64812438       0.50000000       0.51024472 </v>
    <v>       0.00000000       0.00000000      -0.00000000 </v>
    <v>       0.68501926      -0.00000000       0.00409369 </v>
    <v>       0.81498074       0.50000000       0.99590631 </v>
    <v>       0.35187562       0.50000000       0.48975528 </v>
    <v>       0.14812438      -0.00000000       0.51024472 </v>
    <v>       0.50000000       0.50000000      -0.00000000 </v>
    <v>       0.18501926       0.50000000       0.00409369 </v>
    <v>       0.31498074      -0.00000000       0.99590631 </v>
   </varray>
  </structure>
  <varray name="forces" >
   <v>      -0.00000000       0.03564752       0.01795151 </v>
   <v>      -0.00000000      -0.03564752      -0.01795151 </v>
   <v>       0.00000000       0.03564752       0.01795151 </v>
   <v>      -0.00000000      -0.03564752      -0.01795151 </v>
   <v>       0.00000000      -0.00627532      -0.00725628 </v>
   <v>      -0.00000000       0.00627532       0.00725628 </v>
   <v>      -0.00000000       0.00000000       0.00000000 </v>
   <v>       0.00000000       0.00410721       0.00452758 </v>
   <v>      -0.00000000      -0.00410721      -0.00452758 </v>
   <v>      -0.00000000      -0.00627532      -0.00725628 </v>
   <v>      -0.00000000       0.00627532       0.00725628 </v>
   <v>      -0.00000000       0.00000000       0.00000000 </v>
   <v>      -0.00000000       0.00410721       0.00452758 </v>
   <v>      -0.00000000      -0.00410721      -0.00452758 </v>
  </varray>
  <varray name="stress" >
   <v>    -143.03175310       0.00000000       0.00000000 </v>
   <v>       0.00000000    -143.93300984      -0.28362996 </v>
   <v>       0.00000000      -0.28362952    -147.52269289 </v>
  </varray>
  <energy>
   <i name="e_fr_energy">   -125.86433175 </i>
   <i name="e_wo_entrp">   -125.86543893 </i>
   <i name="e_0_energy">      0.00442871 </i>
  </energy>
  <time name="totalsc">  238.40  238.59</time>
 </calculation>
 <calculation>
  <scstep>
   <time name="dav">   48.79   48.84</time>
   <time name="total">   51.41   51.46</time>
   <energy>
    <i name="alphaZ">    532.73731502 </i>
    <i name="ewald">  -5587.89359766 </i>
    <i name="hartreedc">  -2752.72396969 </i>
    <i name="XCdc">    384.85336837 </i>
    <i name="pawpsdc">  13746.18469144 </i>
    <i name="pawaedc"> -13723.31913147 </i>
    <i name="eentropy">      0.00441100 </i>
    <i name="bandstr">  -1219.26024093 </i>
    <i name="atom">   8493.55293326 </i>
    <i name="e_fr_energy">   -125.86422067 </i>
    <i name="e_wo_entrp">   -125.86863167 </i>
    <i name="e_0_energy">   -125.86532342 </i>
   </energy>
  </scstep>
  <scstep>
   <time name="diag">    6.54    6.54</time>
   <time name="diis">   33.23   33.26</time>
   <time name="orth">    1.61    1.61</time>
   <time name="total">   44.00   44.03</time>
   <energy>
    <i name="e_fr_energy">   -125.86436984 </i>
    <i name="e_wo_entrp">   -125.86876035 </i>
    <i name="e_0_energy">   -125.86546747 </i>
   </energy>
  </scstep>
  <scstep>
   <time name="diag">    6.54    6.54</time>
   <time name="diis">   19.07   19.08</time>
   <time name="orth">    1.61    1.61</time>
   <time name="total">   29.84   29.86</time>
   <energy>
    <i name="e_fr_energy">   -125.86434967 </i>
    <i name="e_wo_entrp">   -125.86874262 </i>
    <i name="e_0_energy">   -125.86544791 </i>
   </energy>
  </scstep>
  <scstep>
   <time name="diag">    6.54    6.54</time>
   <time name="diis">   17.25   17.26</time>
   <time name="orth">    1.61    1.61</time>
   <time name="total">   25.83   25.85</time>
   <energy>
    <i name="alphaZ">    532.73731502 </i>
    <i name="ewald">  -5587.89359766 </i>
    <i name="hartreedc">  -2752.76642370 </i>
    <i name="XCdc">    384.85409309 </i>
    <i name="pawpsdc">  13746.62251385 </i>
    <i name="pawaedc"> -13723.75654629 </i>
    <i name="eentropy">      0.00439307 </i>
    <i name="bandstr">  -1219.21903403 </i>
    <i name="atom">   8493.55293326 </i>
    <i name="e_fr_energy">   -125.86435339 </i>
    <i name="e_wo_entrp">   -125.86874647 </i>
    <i name="e_0_energy">   -125.86545166 </i>
   </energy>
  </scstep>
  <structure>
   <crystal>
    <varray name="basis" >
     <v>       0.00000000      13.09307000       0.00000000 </v>
     <v>       3.87273000       0.00000000       0.00000000 </v>
     <v>       0.00000000      -0.05362000      -4.06059200 </v>
    </varray>
    <i name="volume">    205.89607333 </i>
    <varray name="rec_basis" >
     <v>       0.00000000       0.07637628      -0.00100855 </v>
     <v>       0.25821578       0.00000000       0.00000000 </v>
     <v>       0.00000000       0.00000000      -0.24626951 </v>
    </varray>
   </crystal>
   <varray name="positions" >
    <v>       0.85388903       0.00000000       0.93288026 </v>
    <v>       0.64611097       0.50000000       0.06711974 </v>
    <v>       0.35388903       0.50000000       0.93288026 </v>
    <v>       0.14611097       0.00000000       0.06711974 </v>
    <v>       0.85191849       0.00000000       0.48977548 </v>
    <v>       0.64808151       0.50000000       0.51022452 </v>
    <v>       0.00000000       0.00000000      -0.00000000 </v>
    <v>       0.68502412      -0.00000000       0.00402509 </v>
    <v>       0.81497588       0.50000000       0.99597491 </v>
    <v>       0.35191849       0.50000000       0.48977548 </v>
    <v>       0.14808151      -0.00000000       0.51022452 </v>
    <v>       0.50000000       0.50000000      -0.00000000 </v>
    <v>       0.18502412       0.50000000       0.00402509 </v>
    <v>       0.31497588      -0.00000000       0.99597491 </v>
   </varray>
  </structure>
  <varray name="forces" >
   <v>       0.00000000      -0.00958547       0.00442902 </v>
   <v>      -0.00000000       0.00958547      -0.00442902 </v>
   <v>       0.00000000      -0.00958547       0.00442902 </v>
   <v>       0.00000000       0.00958547      -0.00442902 </v>
   <v>      -0.00000000      -0.01400801      -0.00092318 </v>
   <v>       0.00000000       0.01400801       0.00092318 </v>
   <v>      -0.00000000      -0.00000000      -0.00000000 </v>
   <v>      -0.00000000       0.00077695      -0.00193741 </v>
   <v>      -0.00000000      -0.00077695       0.00193741 </v>
   <v>      -0.00000000      -0.01400801      -0.00092318 </v>
   <v>      -0.00000000       0.01400801       0.00092318 </v>
   <v>       0.00000000      -0.00000000      -0.00000000 </v>
   <v>       0.00000000       0.00077695      -0.00193741 </v>
   <v>      -0.00000000      -0.00077695       0.00193741 </v>
  </varray>
  <varray name="stress" >
   <v>    -143.38993933       0.00000000       0.00000000 </v>
   <v>       0.00000000    -142.86710012      -0.39706262 </v>
   <v>       0.00000000      -0.39706250    -146.92293227 </v>
  </varray>
  <energy>
   <i name="e_fr_energy">   -125.86435339 </i>
   <i name="e_wo_entrp">   -125.86545166 </i>
   <i name="e_0_energy">      0.00439307 </i>
  </energy>
  <time name="totalsc">  223.60  223.77</time>
 </calculation>
 <calculation>
  <scstep>
   <time name="dav">   49.42   49.47</time>
   <time name="total">   52.04   52.09</time>
   <energy>
    <i name="alphaZ">    532.73731502 </i>
    <i name="ewald">  -5587.63396828 </i>
    <i name="hartreedc">  -2753.02971747 </i>
    <i name="XCdc">    384.85429709 </i>
    <i name="pawpsdc">  13746.78963138 </i>
    <i name="pawaedc"> -13723.92352936 </i>
    <i name="eentropy">      0.00440316 </i>
    <i name="bandstr">  -1219.21570681 </i>
    <i name="atom">   8493.55293326 </i>
    <i name="e_fr_energy">   -125.86434199 </i>
    <i name="e_wo_entrp">   -125.86874515 </i>
    <i name="e_0_energy">   -125.86544278 </i>
   </energy>
  </scstep>
  <scstep>
   <time name="diag">    6.54    6.54</time>
   <time name="diis">   19.86   19.88</time>
   <time name="orth">    1.61    1.61</time>
   <time name="total">   30.63   30.65</time>
   <energy>
    <i name="e_fr_energy">   -125.86435518 </i>
    <i name="e_wo_entrp">   -125.86876503 </i>
    <i name="e_0_energy">   -125.86545764 </i>
   </energy>
  </scstep>
  <scstep>
   <time name="diag">    6.54    6.54</time>
   <time name="diis">   16.62   16.63</time>
   <time name="orth">    1.61    1.61</time>
   <time name="total">   27.39   27.41</time>
   <energy>
    <i name="e_fr_energy">   -125.86435597 </i>
    <i name="e_wo_entrp">   -125.86876538 </i>
    <i name="e_0_energy">   -125.86545832 </i>
   </energy>
  </scstep>
  <scstep>
   <time name="diag">    6.54    6.54</time>
   <time name="diis">   16.12   16.14</time>
   <time name="orth">    1.61    1.61</time>
   <time name="total">   24.71   24.73</time>
   <energy>
    <i name="alphaZ">    532.73731502 </i>
    <i name="ewald">  -5587.63396828 </i>
    <i name="hartreedc">  -2753.01004272 </i>
    <i name="XCdc">    384.85408380 </i>
    <i name="pawpsdc">  13747.38242908 </i>
    <i name="pawaedc"> -13724.51646026 </i>
    <i name="eentropy">      0.00440954 </i>
    <i name="bandstr">  -1219.23505625 </i>
    <i name="atom">   8493.55293326 </i>
    <i name="e_fr_energy">   -125.86435681 </i>
    <i name="e_wo_entrp">   -125.86876635 </i>
    <i name="e_0_energy">   -125.86545919 </i>
   </energy>
  </scstep>
  <structure>
   <crystal>
    <varray name="basis" >
     <v>       0.00000000      13.09307000       0.00000000 </v>
     <v>       3.87273000       0.00000000       0.00000000 </v>
     <v>       0.00000000      -0.05362000      -4.06059200 </v>
    </varray>
    <i name="volume">    205.89607333 </i>
    <varray name="rec_basis" >
     <v>       0.00000000       0.07637628      -0.00100855 </v>
     <v>       0.25821578       0.00000000       0.00000000 </v>
     <v>       0.00000000       0.00000000      -0.24626951 </v>
    </varray>
   </crystal>
   <varray name="positions" >
    <v>       0.85387037       0.00000000       0.93289180 </v>
    <v>       0.64612963       0.50000000       0.06710820 </v>
    <v>       0.35387037       0.50000000       0.93289180 </v>
    <v>       0.14612963       0.00000000       0.06710820 </v>
    <v>       0.85190302       0.00000000       0.48976819 </v>
    <v>       0.64809698       0.50000000       0.51023181 </v>
    <v>       0.00000000       0.00000000      -0.00000000 </v>
    <v>       0.68502237      -0.00000000       0.00404984 </v>
    <v>       0.81497763       0.50000000       0.99595016 </v>
    <v>       0.35190302       0.50000000       0.48976819 </v>
    <v>       0.14809698      -0.00000000       0.51023181 </v>
    <v>       0.50000000       0.50000000      -0.00000000 </v>
    <v>       0.18502237       0.50000000       0.00404984 </v>
    <v>       0.31497763      -0.00000000       0.99595016 </v>
   </varray>
  </structure>
  <varray name="forces" >
   <v>       0.00000000       0.00930547       0.00952184 </v>
   <v>       0.00000000      -0.00930547      -0.00952184 </v>
   <v>      -0.00000000       0.00930547       0.00952184 </v>
   <v>      -0.00000000      -0.00930547      -0.00952184 </v>
   <v>       0.00000000      -0.00549918      -0.00462559 </v>
   <v>       0.00000000       0.00549918       0.00462559 </v>
   <v>       0.00000000       0.00000000      -0.00000000 </v>
   <v>       0.00000000       0.00122340       0.00266546 </v>
   <v>       0.00000000      -0.00122340      -0.00266546 </v>
   <v>      -0.00000000      -0.00549918      -0.00462559 </v>
   <v>       0.00000000       0.00549918       0.00462559 </v>
   <v>      -0.00000000       0.00000000      -0.00000000 </v>
   <v>       0.00000000       0.00122340       0.00266546 </v>
   <v>       0.00000000      -0.00122340      -0.00266546 </v>
  </varray>
  <varray name="stress" >
   <v>    -143.24158828       0.00000000       0.00000000 </v>
   <v>       0.00000000    -143.23852199      -0.36195588 </v>
   <v>       0.00000000      -0.36195609    -147.14057917 </v>
  </varray>
  <energy>
   <i name="e_fr_energy">   -125.86435681 </i>
   <i name="e_wo_entrp">   -125.86545919 </i>
   <i name="e_0_energy">      0.00440954 </i>
  </energy>
  <time name="totalsc">  207.29  207.45</time>
 </calculation>
 <calculation>
  <scstep>
   <time name="dav">   31.24   31.27</time>
   <time name="total">   33.85   33.88</time>
   <energy>
    <i name="alphaZ">    532.73731502 </i>
    <i name="ewald">  -5587.70817673 </i>
    <i name="hartreedc">  -2752.93365777 </i>
    <i name="XCdc">    384.85396619 </i>
    <i name="pawpsdc">  13747.40157466 </i>
    <i name="pawaedc"> -13724.53560105 </i>
    <i name="eentropy">      0.00440669 </i>
    <i name="bandstr">  -1219.23711338 </i>
    <i name="atom">   8493.55293326 </i>
    <i name="e_fr_energy">   -125.86435310 </i>
    <i name="e_wo_entrp">   -125.86875979 </i>
    <i name="e_0_energy">   -125.86545477 </i>
   </energy>
  </scstep>
  <scstep>
   <time name="diag">    6.54    6.54</time>
   <time name="diis">   16.48   16.49</time>
   <time name="orth">    1.61    1.61</time>
   <time name="total">   27.24   27.26</time>
   <energy>
    <i name="e_fr_energy">   -125.86435586 </i>
    <i name="e_wo_entrp">   -125.86876109 </i>
    <i name="e_0_energy">   -125.86545717 </i>
   </energy>
  </scstep>
  <scstep>
   <time name="diag">    6.54    6.54</time>
   <time name="diis">   16.33   16.34</time>
   <time name="orth">    1.61    1.61</time>
   <time name="total">   27.10   27.11</time>
   <energy>
    <i name="e_fr_energy">   -125.86435691 </i>
    <i name="e_wo_entrp">   -125.86876163 </i>
    <i name="e_0_energy">   -125.86545809 </i>
   </energy>
  </scstep>
  <scstep>
   <time name="diag">    6.54    6.54</time>
   <time name="diis">   15.41   15.43</time>
   <time name="orth">    1.61    1.61</time>
   <time name="total">   24.00   24.01</time>
   <energy>
    <i name="alphaZ">    532.73731502 </i>
    <i name="ewald">  -5587.70817673 </i>
    <i name="hartreedc">  -2752.94292179 </i>
    <i name="XCdc">    384.85410466 </i>
    <i name="pawpsdc">  13747.87292244 </i>
    <i name="pawaedc"> -13725.00706433 </i>
    <i name="eentropy">      0.00440487 </i>
    <i name="bandstr">  -1219.22787462 </i>
    <i name="atom">   8493.55293326 </i>
    <i name="e_fr_energy">   -125.86435722 </i>
    <i name="e_wo_entrp">   -125.86876209 </i>
    <i name="e_0_energy">   -125.86545844 </i>
   </energy>
  </scstep>
  <structure>
   <crystal>
    <varray name="basis" >
     <v>       0.00000000      13.09307000       0.00000000 </v>
     <v>       3.87273000       0.00000000       0.00000000 </v>
     <v>       0.00000000      -0.05362000      -4.06059200 </v>
    </varray>
    <i name="volume">    205.89607333 </i>
    <varray name="rec_basis" >
     <v>       0.00000000       0.07637628      -0.00100855 </v>
     <v>       0.25821578       0.00000000       0.00000000 </v>
     <v>       0.00000000       0.00000000      -0.24626951 </v>
    </varray>
   </crystal>
   <varray name="positions" >
    <v>       0.85387570       0.00000000       0.93288850 </v>
    <v>       0.64612430       0.50000000       0.06711150 </v>
    <v>       0.35387570       0.50000000       0.93288850 </v>
    <v>       0.14612430       0.00000000       0.06711150 </v>
    <v>       0.85190744       0.00000000       0.48977028 </v>
    <v>       0.64809256       0.50000000       0.51022972 </v>
    <v>       0.00000000       0.00000000      -0.00000000 </v>
    <v>       0.68502287      -0.00000000       0.00404277 </v>
    <v>       0.81497713       0.50000000       0.99595723 </v>
    <v>       0.35190744       0.50000000       0.48977028 </v>
    <v>       0.14809256      -0.00000000       0.51022972 </v>
[...]
       <r>    25.8605     0.0000    69.0000 </r>
       <r>    26.0721     0.0000    69.0000 </r>
       <r>    26.2836     0.0000    69.0000 </r>
       <r>    26.4951     0.0000    69.0000 </r>
       <r>    26.7066     0.0000    69.0000 </r>
       <r>    26.9182     0.0000    69.0000 </r>
       <r>    27.1297     0.0000    69.0000 </r>
       <r>    27.3412     0.0000    69.0000 </r>
       <r>    27.5527     0.0000    69.0000 </r>
       <r>    27.7642     0.0000    69.0000 </r>
       <r>    27.9758     0.0000    69.0000 </r>
       <r>    28.1873     0.0000    69.0000 </r>
       <r>    28.3988     0.0000    69.0000 </r>
       <r>    28.6103     0.0000    69.0000 </r>
       <r>    28.8219     0.0000    69.0000 </r>
       <r>    29.0334     0.0000    69.0000 </r>
       <r>    29.2449     0.0000    69.0000 </r>
       <r>    29.4564     0.0000    69.0000 </r>
       <r>    29.6679     0.0000    69.0000 </r>
       <r>    29.8795     0.0000    69.0000 </r>
       <r>    30.0910     0.0000    69.0000 </r>
       <r>    30.3025     0.0000    69.0000 </r>
       <r>    30.5140     0.0000    69.0000 </r>
       <r>    30.7256     0.0000    69.0000 </r>
       <r>    30.9371     0.0000    69.0000 </r>
       <r>    31.1486     0.0000    69.0000 </r>
       <r>    31.3601     0.0000    69.0000 </r>
       <r>    31.5716     0.0000    69.0000 </r>
       <r>    31.7832     0.0000    69.0000 </r>
       <r>    31.9947     0.0000    69.0000 </r>
       <r>    32.2062     0.0000    69.0000 </r>
       <r>    32.4177     0.0000    69.0000 </r>
       <r>    32.6293     0.0000    69.0000 </r>
       <r>    32.8408     0.0000    69.0000 </r>
       <r>    33.0523     0.0000    69.0000 </r>
       <r>    33.2638     0.0000    69.0000 </r>
       <r>    33.4753     0.0000    69.0000 </r>
       <r>    33.6869     0.0000    69.0000 </r>
       <r>    33.8984     0.0000    69.0000 </r>
       <r>    34.1099     0.0000    69.0000 </r>
       <r>    34.3214     0.0000    69.0000 </r>
       <r>    34.5330     0.0000    69.0000 </r>
       <r>    34.7445     0.0000    69.0000 </r>
       <r>    34.9560     0.0000    69.0000 </r>
       <r>    35.1675     0.0000    69.0000 </r>
       <r>    35.3790     0.0000    69.0000 </r>
       <r>    35.5906     0.0000    69.0000 </r>
       <r>    35.8021     0.0000    69.0000 </r>
       <r>    36.0136     0.0000    69.0000 </r>
       <r>    36.2251     0.0000    69.0000 </r>
       <r>    36.4367     0.0000    69.0000 </r>
       <r>    36.6482     0.0000    69.0000 </r>
       <r>    36.8597     0.0000    69.0000 </r>
       <r>    37.0712     0.0000    69.0000 </r>
       <r>    37.2827     0.0000    69.0000 </r>
       <r>    37.4943     0.0000    69.0000 </r>
       <r>    37.7058     0.0000    69.0000 </r>
       <r>    37.9173     0.0000    69.0000 </r>
       <r>    38.1288     0.0000    69.0000 </r>
       <r>    38.3404     0.0000    69.0000 </r>
      </set>
      <set comment="spin 2">
       <r>   -25.1163    56.7316    12.0000 </r>
       <r>   -24.9048     0.0000    12.0000 </r>
       <r>   -24.6933     0.0000    12.0000 </r>
       <r>   -24.4818     0.0000    12.0000 </r>
       <r>   -24.2703     0.0000    12.0000 </r>
       <r>   -24.0587     0.0000    12.0000 </r>
       <r>   -23.8472     0.0000    12.0000 </r>
       <r>   -23.6357     0.0000    12.0000 </r>
       <r>   -23.4242     0.0000    12.0000 </r>
       <r>   -23.2126     0.0000    12.0000 </r>
       <r>   -23.0011     0.0000    12.0000 </r>
       <r>   -22.7896     0.0000    12.0000 </r>
       <r>   -22.5781     0.0000    12.0000 </r>
       <r>   -22.3666     0.0000    12.0000 </r>
       <r>   -22.1550     0.0000    12.0000 </r>
       <r>   -21.9435     0.0000    12.0000 </r>
       <r>   -21.7320     0.0000    12.0000 </r>
       <r>   -21.5205     0.0000    12.0000 </r>
       <r>   -21.3089     0.0000    12.0000 </r>
       <r>   -21.0974     0.0000    12.0000 </r>
       <r>   -20.8859     0.0000    12.0000 </r>
       <r>   -20.6744     0.0000    12.0000 </r>
       <r>   -20.4629     0.0000    12.0000 </r>
       <r>   -20.2513     0.0000    12.0000 </r>
       <r>   -20.0398     0.0000    12.0000 </r>
       <r>   -19.8283     0.0000    12.0000 </r>
       <r>   -19.6168     0.0000    12.0000 </r>
       <r>   -19.4052     0.0000    12.0000 </r>
       <r>   -19.1937     0.0000    12.0000 </r>
       <r>   -18.9822     0.0000    12.0000 </r>
       <r>   -18.7707     0.0000    12.0000 </r>
       <r>   -18.5592     0.0000    12.0000 </r>
       <r>   -18.3476     0.0000    12.0000 </r>
       <r>   -18.1361     0.0000    12.0000 </r>
       <r>   -17.9246     0.0000    12.0000 </r>
       <r>   -17.7131     0.0021    12.0004 </r>
       <r>   -17.5015     0.1372    12.0295 </r>
       <r>   -17.2900     1.7616    12.4021 </r>
       <r>   -17.0785     3.2310    13.0855 </r>
       <r>   -16.8670     2.1666    13.5438 </r>
       <r>   -16.6555     6.7837    14.9787 </r>
       <r>   -16.4439     2.8725    15.5863 </r>
       <r>   -16.2324     8.4265    17.3687 </r>
       <r>   -16.0209     6.6729    18.7801 </r>
       <r>   -15.8094     7.9017    20.4515 </r>
       <r>   -15.5978    -0.2536    20.3979 </r>
       <r>   -15.3863     4.1496    21.2756 </r>
       <r>   -15.1748     3.4047    21.9958 </r>
       <r>   -14.9633     0.0200    22.0000 </r>
       <r>   -14.7518     0.0000    22.0000 </r>
       <r>   -14.5402     0.0000    22.0000 </r>
       <r>   -14.3287     0.0000    22.0000 </r>
       <r>   -14.1172     0.0000    22.0000 </r>
       <r>   -13.9057     0.0000    22.0000 </r>
       <r>   -13.6941     0.0000    22.0000 </r>
       <r>   -13.4826     0.0000    22.0000 </r>
       <r>   -13.2711     0.0000    22.0000 </r>
       <r>   -13.0596     0.0000    22.0000 </r>
       <r>   -12.8481     0.0000    22.0000 </r>
       <r>   -12.6365     0.0000    22.0000 </r>
       <r>   -12.4250     0.0000    22.0000 </r>
       <r>   -12.2135     0.0000    22.0000 </r>
       <r>   -12.0020     0.0000    22.0000 </r>
       <r>   -11.7904     0.0000    22.0000 </r>
       <r>   -11.5789     0.0000    22.0000 </r>
       <r>   -11.3674     0.0000    22.0000 </r>
       <r>   -11.1559     0.0000    22.0000 </r>
       <r>   -10.9443     0.0000    22.0000 </r>
       <r>   -10.7328     0.0000    22.0000 </r>
       <r>   -10.5213     0.0000    22.0000 </r>
       <r>   -10.3098     0.0000    22.0000 </r>
       <r>   -10.0983     0.0000    22.0000 </r>
       <r>    -9.8867     0.0000    22.0000 </r>
       <r>    -9.6752     0.0000    22.0000 </r>
       <r>    -9.4637     0.0000    22.0000 </r>
       <r>    -9.2522     0.0000    22.0000 </r>
       <r>    -9.0406     0.0000    22.0000 </r>
       <r>    -8.8291     0.0000    22.0000 </r>
       <r>    -8.6176     0.0000    22.0000 </r>
       <r>    -8.4061     0.0000    22.0000 </r>
       <r>    -8.1946     0.0000    22.0000 </r>
       <r>    -7.9830     0.0000    22.0000 </r>
       <r>    -7.7715     0.0000    22.0000 </r>
       <r>    -7.5600     0.0000    22.0000 </r>
       <r>    -7.3485     0.0000    22.0000 </r>
       <r>    -7.1369     0.0000    22.0000 </r>
       <r>    -6.9254     0.0000    22.0000 </r>
       <r>    -6.7139     0.0000    22.0000 </r>
       <r>    -6.5024     0.0000    22.0000 </r>
       <r>    -6.2909     0.0000    22.0000 </r>
       <r>    -6.0793     0.0000    22.0000 </r>
       <r>    -5.8678     0.0000    22.0000 </r>
       <r>    -5.6563     0.0000    22.0000 </r>
       <r>    -5.4448     0.0001    22.0000 </r>
       <r>    -5.2332    -0.0587    21.9876 </r>
       <r>    -5.0217     5.7636    23.2067 </r>
       <r>    -4.8102     4.4630    24.1508 </r>
       <r>    -4.5987     2.7661    24.7359 </r>
       <r>    -4.3872     6.7282    26.1590 </r>
       <r>    -4.1756     7.6402    27.7751 </r>
       <r>    -3.9641     4.5171    28.7306 </r>
       <r>    -3.7526     2.8666    29.3369 </r>
       <r>    -3.5411     4.1827    30.2217 </r>
       <r>    -3.3295     5.2399    31.3300 </r>
       <r>    -3.1180     5.0708    32.4026 </r>
       <r>    -2.9065     4.8812    33.4351 </r>
       <r>    -2.6950     5.8451    34.6714 </r>
       <r>    -2.4835     6.0170    35.9442 </r>
       <r>    -2.2719     7.1950    37.4661 </r>
       <r>    -2.0604     8.8180    39.3313 </r>
       <r>    -1.8489     5.8994    40.5791 </r>
       <r>    -1.6374     6.7121    41.9989 </r>
       <r>    -1.4258     7.1997    43.5218 </r>
       <r>    -1.2143     8.3645    45.2911 </r>
       <r>    -1.0028     4.5439    46.2522 </r>
       <r>    -0.7913     4.3765    47.1779 </r>
       <r>    -0.5798     9.2060    49.1252 </r>
       <r>    -0.3682     7.0834    50.6235 </r>
       <r>    -0.1567     1.1822    50.8736 </r>
       <r>     0.0548     5.1775    51.9687 </r>
       <r>     0.2663     0.1439    51.9991 </r>
       <r>     0.4779     0.0041    52.0000 </r>
       <r>     0.6894     0.0000    52.0000 </r>
       <r>     0.9009     0.0000    52.0000 </r>
       <r>     1.1124     0.0000    52.0000 </r>
       <r>     1.3239     0.0000    52.0000 </r>
       <r>     1.5355     0.0000    52.0000 </r>
       <r>     1.7470     0.0000    52.0000 </r>
       <r>     1.9585     0.0000    52.0000 </r>
       <r>     2.1700     0.0005    52.0001 </r>
       <r>     2.3816     0.1097    52.0233 </r>
       <r>     2.5931     0.2567    52.0776 </r>
       <r>     2.8046     2.0924    52.5202 </r>
       <r>     3.0161     6.3021    53.8532 </r>
       <r>     3.2276     2.1115    54.2999 </r>
       <r>     3.4392     1.2435    54.5629 </r>
       <r>     3.6507     3.8944    55.3867 </r>
       <r>     3.8622     2.8054    55.9801 </r>
       <r>     4.0737     3.9153    56.8082 </r>
       <r>     4.2853     5.5994    57.9926 </r>
       <r>     4.4968     4.7664    59.0008 </r>
       <r>     4.7083     5.8167    60.2312 </r>
       <r>     4.9198     6.5947    61.6261 </r>
       <r>     5.1313     3.9768    62.4673 </r>
       <r>     5.3429     3.3667    63.1794 </r>
       <r>     5.5544     4.8429    64.2038 </r>
       <r>     5.7659     2.4594    64.7240 </r>
       <r>     5.9774     2.3956    65.2308 </r>
       <r>     6.1890     1.4305    65.5333 </r>
       <r>     6.4005     1.7888    65.9117 </r>
       <r>     6.6120     2.2675    66.3913 </r>
       <r>     6.8235     2.1711    66.8506 </r>
       <r>     7.0350     1.0479    67.0722 </r>
       <r>     7.2466     1.5894    67.4084 </r>
       <r>     7.4581     1.6924    67.7664 </r>
       <r>     7.6696     1.5883    68.1024 </r>
       <r>     7.8811     2.2854    68.5858 </r>
       <r>     8.0927     1.2283    68.8456 </r>
       <r>     8.3042    -0.0267    68.8399 </r>
       <r>     8.5157     0.0003    68.8400 </r>
       <r>     8.7272    -0.0122    68.8374 </r>
       <r>     8.9388     0.7274    68.9913 </r>
       <r>     9.1503     0.0402    68.9998 </r>
       <r>     9.3618     0.0010    69.0000 </r>
       <r>     9.5733     0.0000    69.0000 </r>
       <r>     9.7848     0.0000    69.0000 </r>
       <r>     9.9964     0.0000    69.0000 </r>
       <r>    10.2079     0.0000    69.0000 </r>
       <r>    10.4194     0.0000    69.0000 </r>
       <r>    10.6309     0.0000    69.0000 </r>
       <r>    10.8425     0.0000    69.0000 </r>
       <r>    11.0540     0.0000    69.0000 </r>
       <r>    11.2655     0.0000    69.0000 </r>
       <r>    11.4770     0.0000    69.0000 </r>
       <r>    11.6885     0.0000    69.0000 </r>
       <r>    11.9001     0.0000    69.0000 </r>
       <r>    12.1116     0.0000    69.0000 </r>
       <r>    12.3231     0.0000    69.0000 </r>
       <r>    12.5346     0.0000    69.0000 </r>
       <r>    12.7462     0.0000    69.0000 </r>
       <r>    12.9577     0.0000    69.0000 </r>
       <r>    13.1692     0.0000    69.0000 </r>
       <r>    13.3807     0.0000    69.0000 </r>
       <r>    13.5922     0.0000    69.0000 </r>
       <r>    13.8038     0.0000    69.0000 </r>
       <r>    14.0153     0.0000    69.0000 </r>
       <r>    14.2268     0.0000    69.0000 </r>
       <r>    14.4383     0.0000    69.0000 </r>
       <r>    14.6499     0.0000    69.0000 </r>
       <r>    14.8614     0.0000    69.0000 </r>
       <r>    15.0729     0.0000    69.0000 </r>
       <r>    15.2844     0.0000    69.0000 </r>
       <r>    15.4959     0.0000    69.0000 </r>
       <r>    15.7075     0.0000    69.0000 </r>
       <r>    15.9190     0.0000    69.0000 </r>
       <r>    16.1305     0.0000    69.0000 </r>
       <r>    16.3420     0.0000    69.0000 </r>
       <r>    16.5536     0.0000    69.0000 </r>
       <r>    16.7651     0.0000    69.0000 </r>
       <r>    16.9766     0.0000    69.0000 </r>
       <r>    17.1881     0.0000    69.0000 </r>
       <r>    17.3996     0.0000    69.0000 </r>
       <r>    17.6112     0.0000    69.0000 </r>
       <r>    17.8227     0.0000    69.0000 </r>
       <r>    18.0342     0.0000    69.0000 </r>
       <r>    18.2457     0.0000    69.0000 </r>
       <r>    18.4573     0.0000    69.0000 </r>
       <r>    18.6688     0.0000    69.0000 </r>
       <r>    18.8803     0.0000    69.0000 </r>
       <r>    19.0918     0.0000    69.0000 </r>
       <r>    19.3033     0.0000    69.0000 </r>
       <r>    19.5149     0.0000    69.0000 </r>
       <r>    19.7264     0.0000    69.0000 </r>
       <r>    19.9379     0.0000    69.0000 </r>
       <r>    20.1494     0.0000    69.0000 </r>
       <r>    20.3610     0.0000    69.0000 </r>
       <r>    20.5725     0.0000    69.0000 </r>
       <r>    20.7840     0.0000    69.0000 </r>
       <r>    20.9955     0.0000    69.0000 </r>
       <r>    21.2070     0.0000    69.0000 </r>
       <r>    21.4186     0.0000    69.0000 </r>
       <r>    21.6301     0.0000    69.0000 </r>
       <r>    21.8416     0.0000    69.0000 </r>
       <r>    22.0531     0.0000    69.0000 </r>
       <r>    22.2647     0.0000    69.0000 </r>
       <r>    22.4762     0.0000    69.0000 </r>
       <r>    22.6877     0.0000    69.0000 </r>
       <r>    22.8992     0.0000    69.0000 </r>
       <r>    23.1107     0.0000    69.0000 </r>
       <r>    23.3223     0.0000    69.0000 </r>
       <r>    23.5338     0.0000    69.0000 </r>
       <r>    23.7453     0.0000    69.0000 </r>
       <r>    23.9568     0.0000    69.0000 </r>
       <r>    24.1684     0.0000    69.0000 </r>
       <r>    24.3799     0.0000    69.0000 </r>
       <r>    24.5914     0.0000    69.0000 </r>
       <r>    24.8029     0.0000    69.0000 </r>
       <r>    25.0144     0.0000    69.0000 </r>
       <r>    25.2260     0.0000    69.0000 </r>
       <r>    25.4375     0.0000    69.0000 </r>
       <r>    25.6490     0.0000    69.0000 </r>
       <r>    25.8605     0.0000    69.0000 </r>
       <r>    26.0721     0.0000    69.0000 </r>
       <r>    26.2836     0.0000    69.0000 </r>
       <r>    26.4951     0.0000    69.0000 </r>
       <r>    26.7066     0.0000    69.0000 </r>
       <r>    26.9182     0.0000    69.0000 </r>
       <r>    27.1297     0.0000    69.0000 </r>
       <r>    27.3412     0.0000    69.0000 </r>
       <r>    27.5527     0.0000    69.0000 </r>
       <r>    27.7642     0.0000    69.0000 </r>
       <r>    27.9758     0.0000    69.0000 </r>
       <r>    28.1873     0.0000    69.0000 </r>
       <r>    28.3988     0.0000    69.0000 </r>
       <r>    28.6103     0.0000    69.0000 </r>
       <r>    28.8219     0.0000    69.0000 </r>
       <r>    29.0334     0.0000    69.0000 </r>
       <r>    29.2449     0.0000    69.0000 </r>
       <r>    29.4564     0.0000    69.0000 </r>
       <r>    29.6679     0.0000    69.0000 </r>
       <r>    29.8795     0.0000    69.0000 </r>
       <r>    30.0910     0.0000    69.0000 </r>
       <r>    30.3025     0.0000    69.0000 </r>
       <r>    30.5140     0.0000    69.0000 </r>
       <r>    30.7256     0.0000    69.0000 </r>
       <r>    30.9371     0.0000    69.0000 </r>
       <r>    31.1486     0.0000    69.0000 </r>
       <r>    31.3601     0.0000    69.0000 </r>
       <r>    31.5716     0.0000    69.0000 </r>
       <r>    31.7832     0.0000    69.0000 </r>
       <r>    31.9947     0.0000    69.0000 </r>
       <r>    32.2062     0.0000    69.0000 </r>
       <r>    32.4177     0.0000    69.0000 </r>
       <r>    32.6293     0.0000    69.0000 </r>
       <r>    32.8408     0.0000    69.0000 </r>
       <r>    33.0523     0.0000    69.0000 </r>
       <r>    33.2638     0.0000    69.0000 </r>
       <r>    33.4753     0.0000    69.0000 </r>
       <r>    33.6869     0.0000    69.0000 </r>
       <r>    33.8984     0.0000    69.0000 </r>
       <r>    34.1099     0.0000    69.0000 </r>
       <r>    34.3214     0.0000    69.0000 </r>
       <r>    34.5330     0.0000    69.0000 </r>
       <r>    34.7445     0.0000    69.0000 </r>
       <r>    34.9560     0.0000    69.0000 </r>
       <r>    35.1675     0.0000    69.0000 </r>
       <r>    35.3790     0.0000    69.0000 </r>
       <r>    35.5906     0.0000    69.0000 </r>
       <r>    35.8021     0.0000    69.0000 </r>
       <r>    36.0136     0.0000    69.0000 </r>
       <r>    36.2251     0.0000    69.0000 </r>
       <r>    36.4367     0.0000    69.0000 </r>
       <r>    36.6482     0.0000    69.0000 </r>
       <r>    36.8597     0.0000    69.0000 </r>
       <r>    37.0712     0.0000    69.0000 </r>
       <r>    37.2827     0.0000    69.0000 </r>
       <r>    37.4943     0.0000    69.0000 </r>
       <r>    37.7058     0.0000    69.0000 </r>
       <r>    37.9173     0.0000    69.0000 </r>
       <r>    38.1288     0.0000    69.0000 </r>
       <r>    38.3404     0.0000    69.0000 </r>
      </set>
     </set>
    </array>
   </total>
  </dos>
 </calculation>
 <structure name="finalpos" >
  <crystal>
   <varray name="basis" >
    <v>       0.00000000      13.09307000       0.00000000 </v>
    <v>       3.87273000       0.00000000       0.00000000 </v>
    <v>       0.00000000      -0.05362000      -4.06059200 </v>
   </varray>
   <i name="volume">    205.89607333 </i>
   <varray name="rec_basis" >
    <v>       0.00000000       0.07637628      -0.00100855 </v>
    <v>       0.25821578       0.00000000       0.00000000 </v>
    <v>       0.00000000       0.00000000      -0.24626951 </v>
   </varray>
  </crystal>
  <varray name="positions" >
   <v>       0.85387370       0.00000000       0.93288974 </v>
   <v>       0.64612630       0.50000000       0.06711026 </v>
   <v>       0.35387370       0.50000000       0.93288974 </v>
   <v>       0.14612630       0.00000000       0.06711026 </v>
   <v>       0.85190578       0.00000000       0.48976949 </v>
   <v>       0.64809422       0.50000000       0.51023051 </v>
   <v>       0.00000000       0.00000000      -0.00000000 </v>
   <v>       0.68502268      -0.00000000       0.00404543 </v>
   <v>       0.81497732       0.50000000       0.99595457 </v>
   <v>       0.35190578       0.50000000       0.48976949 </v>
   <v>       0.14809422      -0.00000000       0.51023051 </v>
   <v>       0.50000000       0.50000000      -0.00000000 </v>
   <v>       0.18502268       0.50000000       0.00404543 </v>
   <v>       0.31497732      -0.00000000       0.99595457 </v>
  </varray>
  <varray name="selective"  type="logical" >
   <v type="logical" >  T  T  T </v>
   <v type="logical" >  T  T  T </v>
   <v type="logical" >  T  T  T </v>
   <v type="logical" >  T  T  T </v>
   <v type="logical" >  T  T  T </v>
   <v type="logical" >  T  T  T </v>
   <v type="logical" >  T  T  T </v>
   <v type="logical" >  T  T  T </v>
   <v type="logical" >  T  T  T </v>
   <v type="logical" >  T  T  T </v>
   <v type="logical" >  T  T  T </v>
   <v type="logical" >  T  T  T </v>
   <v type="logical" >  T  T  T </v>
   <v type="logical" >  T  T  T </v>
  </varray>
  <nose>
   <v>      -3.00000000       0.00000000       0.00010000       0.00010000 </v>
  </nose>
 </structure>
</modeling>
