Crystal                                 
           1
     0.000000   13.093070    0.000000
     3.872730    0.000000    0.000000
     0.000000   -0.053620   -4.060592
   Nb   O 
   4  10
Direct configuration=     1
   0.85384000  0.00000000  0.93278400
   0.64616000  0.50000000  0.06721600
   0.35384000  0.50000000  0.93278400
   0.14616000  0.00000000  0.06721600
   0.85241700  0.00000000  0.48936600
   0.64758300  0.50000000  0.51063400
   0.00000000  0.00000000  0.00000000
   0.68503300  0.00000000  0.00308500
   0.81496700  0.50000000  0.99691500
   0.35241700  0.50000000  0.48936600
   0.14758300  0.00000000  0.51063400
   0.50000000  0.50000000  0.00000000
   0.18503300  0.50000000  0.00308500
   0.31496700  0.00000000  0.99691500
Direct configuration=     2
   0.85403349  0.00000000  0.93239526
   0.64596651  0.50000000  0.06760474
   0.35403349  0.50000000  0.93239526
   0.14596651  0.00000000  0.06760474
   0.85227472 -0.00000000  0.48995503
   0.64772528  0.50000000  0.51004497
  -0.00000000 -0.00000000  0.00000000
   0.68504833 -0.00000000  0.00335822
   0.81495167  0.50000000  0.99664178
   0.35227472  0.50000000  0.48995503
   0.14772528 -0.00000000  0.51004497
   0.50000000  0.50000000  0.00000000
   0.18504833  0.50000000  0.00335822
   0.31495167 -0.00000000  0.99664178
Direct configuration=     3
   0.85395096  0.00000000  0.93256107
   0.64604904  0.50000000  0.06743893
   0.35395096  0.50000000  0.93256107
   0.14604904  0.00000000  0.06743893
   0.85233540 -0.00000000  0.48970380
   0.64766460  0.50000000  0.51029620
  -0.00000000 -0.00000000  0.00000000
   0.68504179 -0.00000000  0.00324169
   0.81495821  0.50000000  0.99675831
   0.35233540  0.50000000  0.48970380
   0.14766460 -0.00000000  0.51029620
   0.50000000  0.50000000  0.00000000
   0.18504179  0.50000000  0.00324169
   0.31495821 -0.00000000  0.99675831
Direct configuration=     4
   0.85396004  0.00000000  0.93254284
   0.64603996  0.50000000  0.06745716
   0.35396004  0.50000000  0.93254284
   0.14603996  0.00000000  0.06745716
   0.85232873 -0.00000000  0.48973142
   0.64767127  0.50000000  0.51026858
  -0.00000000 -0.00000000  0.00000000
   0.68504251 -0.00000000  0.00325450
   0.81495749  0.50000000  0.99674550
   0.35232873  0.50000000  0.48973142
   0.14767127 -0.00000000  0.51026858
   0.50000000  0.50000000  0.00000000
   0.18504251  0.50000000  0.00325450
   0.31495749 -0.00000000  0.99674550
Direct configuration=     5
   0.85395359  0.00000000  0.93255579
   0.64604641  0.50000000  0.06744421
   0.35395359  0.50000000  0.93255579
   0.14604641  0.00000000  0.06744421
   0.85233347 -0.00000000  0.48971179
   0.64766653  0.50000000  0.51028821
  -0.00000000 -0.00000000  0.00000000
   0.68504200 -0.00000000  0.00324539
   0.81495800  0.50000000  0.99675461
   0.35233347  0.50000000  0.48971179
   0.14766653 -0.00000000  0.51028821
   0.50000000  0.50000000  0.00000000
   0.18504200  0.50000000  0.00324539
   0.31495800 -0.00000000  0.99675461
Direct configuration=     6
   0.85396624  0.00000000  0.93268476
   0.64603376  0.50000000  0.06731524
   0.35396624  0.50000000  0.93268476
   0.14603376  0.00000000  0.06731524
   0.85217018  0.00000000  0.48975949
   0.64782982  0.50000000  0.51024051
   0.00000000  0.00000000 -0.00000000
   0.68503751 -0.00000000  0.00356228
   0.81496249  0.50000000  0.99643772
   0.35217018  0.50000000  0.48975949
   0.14782982  0.00000000  0.51024051
   0.50000000  0.50000000 -0.00000000
   0.18503751  0.50000000  0.00356228
   0.31496249 -0.00000000  0.99643772
Direct configuration=     7
   0.85397990  0.00000000  0.93282404
   0.64602010  0.50000000  0.06717596
   0.35397990  0.50000000  0.93282404
   0.14602010  0.00000000  0.06717596
   0.85199383  0.00000000  0.48981100
   0.64800617  0.50000000  0.51018900
   0.00000000  0.00000000 -0.00000000
   0.68503266 -0.00000000  0.00390451
   0.81496734  0.50000000  0.99609549
   0.35199383  0.50000000  0.48981100
   0.14800617  0.00000000  0.51018900
   0.50000000  0.50000000 -0.00000000
   0.18503266  0.50000000  0.00390451
   0.31496734 -0.00000000  0.99609549
Direct configuration=     8
   0.85383733  0.00000000  0.93291224
   0.64616267  0.50000000  0.06708776
   0.35383733  0.50000000  0.93291224
   0.14616267  0.00000000  0.06708776
   0.85187562  0.00000000  0.48975528
   0.64812438  0.50000000  0.51024472
   0.00000000  0.00000000 -0.00000000
   0.68501926 -0.00000000  0.00409369
   0.81498074  0.50000000  0.99590631
   0.35187562  0.50000000  0.48975528
   0.14812438 -0.00000000  0.51024472
   0.50000000  0.50000000 -0.00000000
   0.18501926  0.50000000  0.00409369
   0.31498074 -0.00000000  0.99590631
Direct configuration=     9
   0.85388903  0.00000000  0.93288026
   0.64611097  0.50000000  0.06711974
   0.35388903  0.50000000  0.93288026
   0.14611097  0.00000000  0.06711974
   0.85191849  0.00000000  0.48977548
   0.64808151  0.50000000  0.51022452
   0.00000000  0.00000000 -0.00000000
   0.68502412 -0.00000000  0.00402509
   0.81497588  0.50000000  0.99597491
   0.35191849  0.50000000  0.48977548
   0.14808151 -0.00000000  0.51022452
   0.50000000  0.50000000 -0.00000000
   0.18502412  0.50000000  0.00402509
   0.31497588 -0.00000000  0.99597491
Direct configuration=    10
   0.85387037  0.00000000  0.93289180
   0.64612963  0.50000000  0.06710820
   0.35387037  0.50000000  0.93289180
   0.14612963  0.00000000  0.06710820
   0.85190302  0.00000000  0.48976819
   0.64809698  0.50000000  0.51023181
   0.00000000  0.00000000 -0.00000000
   0.68502237 -0.00000000  0.00404984
   0.81497763  0.50000000  0.99595016
   0.35190302  0.50000000  0.48976819
   0.14809698 -0.00000000  0.51023181
   0.50000000  0.50000000 -0.00000000
   0.18502237  0.50000000  0.00404984
   0.31497763 -0.00000000  0.99595016
Direct configuration=    11
   0.85387570  0.00000000  0.93288850
   0.64612430  0.50000000  0.06711150
   0.35387570  0.50000000  0.93288850
   0.14612430  0.00000000  0.06711150
   0.85190744  0.00000000  0.48977028
   0.64809256  0.50000000  0.51022972
   0.00000000  0.00000000 -0.00000000
   0.68502287 -0.00000000  0.00404277
   0.81497713  0.50000000  0.99595723
   0.35190744  0.50000000  0.48977028
   0.14809256 -0.00000000  0.51022972
   0.50000000  0.50000000 -0.00000000
   0.18502287  0.50000000  0.00404277
   0.31497713 -0.00000000  0.99595723
Direct configuration=    12
   0.85387262  0.00000000  0.93289041
   0.64612738  0.50000000  0.06710959
   0.35387262  0.50000000  0.93289041
   0.14612738  0.00000000  0.06710959
   0.85190489  0.00000000  0.48976907
   0.64809511  0.50000000  0.51023093
   0.00000000  0.00000000 -0.00000000
   0.68502258 -0.00000000  0.00404685
   0.81497742  0.50000000  0.99595315
   0.35190489  0.50000000  0.48976907
   0.14809511 -0.00000000  0.51023093
   0.50000000  0.50000000 -0.00000000
   0.18502258  0.50000000  0.00404685
   0.31497742 -0.00000000  0.99595315
Direct configuration=    13
   0.85387416  0.00000000  0.93288946
   0.64612584  0.50000000  0.06711054
   0.35387416  0.50000000  0.93288946
   0.14612584  0.00000000  0.06711054
   0.85190617  0.00000000  0.48976967
   0.64809383  0.50000000  0.51023033
   0.00000000  0.00000000 -0.00000000
   0.68502272 -0.00000000  0.00404481
   0.81497728  0.50000000  0.99595519
   0.35190617  0.50000000  0.48976967
   0.14809383 -0.00000000  0.51023033
   0.50000000  0.50000000 -0.00000000
   0.18502272  0.50000000  0.00404481
   0.31497728 -0.00000000  0.99595519
Direct configuration=    14
   0.85387345  0.00000000  0.93288990
   0.64612655  0.50000000  0.06711010
   0.35387345  0.50000000  0.93288990
   0.14612655  0.00000000  0.06711010
   0.85190557  0.00000000  0.48976939
   0.64809443  0.50000000  0.51023061
   0.00000000  0.00000000 -0.00000000
   0.68502266 -0.00000000  0.00404576
   0.81497734  0.50000000  0.99595424
   0.35190557  0.50000000  0.48976939
   0.14809443 -0.00000000  0.51023061
   0.50000000  0.50000000 -0.00000000
   0.18502266  0.50000000  0.00404576
   0.31497734 -0.00000000  0.99595424
Direct configuration=    15
   0.85387378  0.00000000  0.93288970
   0.64612622  0.50000000  0.06711030
   0.35387378  0.50000000  0.93288970
   0.14612622  0.00000000  0.06711030
   0.85190584  0.00000000  0.48976952
   0.64809416  0.50000000  0.51023048
   0.00000000  0.00000000 -0.00000000
   0.68502269 -0.00000000  0.00404532
   0.81497731  0.50000000  0.99595468
   0.35190584  0.50000000  0.48976952
   0.14809416 -0.00000000  0.51023048
   0.50000000  0.50000000 -0.00000000
   0.18502269  0.50000000  0.00404532
   0.31497731 -0.00000000  0.99595468
Direct configuration=    16
   0.85387370  0.00000000  0.93288974
   0.64612630  0.50000000  0.06711026
   0.35387370  0.50000000  0.93288974
   0.14612630  0.00000000  0.06711026
   0.85190578  0.00000000  0.48976949
   0.64809422  0.50000000  0.51023051
   0.00000000  0.00000000 -0.00000000
   0.68502268 -0.00000000  0.00404543
   0.81497732  0.50000000  0.99595457
   0.35190578  0.50000000  0.48976949
   0.14809422 -0.00000000  0.51023051
   0.50000000  0.50000000 -0.00000000
   0.18502268  0.50000000  0.00404543
   0.31497732 -0.00000000  0.99595457
