  30  30   0   0
  0.1112671E+02  0.5222990E-09  0.5222990E-09  0.1412924E-08  0.5000000E-15
  1.000000000000000E-004
  CAR 
 Crystal                                 
     41.58456142    -21.18748558  301      1.69498870      1.00000000
    -21.187  0.2868E+00  0.2868E+00  0.6000E-01  0.6000E-01
    -20.978  0.0000E+00  0.0000E+00  0.6000E-01  0.6000E-01
    -20.769  0.0000E+00  0.0000E+00  0.6000E-01  0.6000E-01
    -20.560  0.0000E+00  0.0000E+00  0.6000E-01  0.6000E-01
    -20.351  0.0000E+00  0.0000E+00  0.6000E-01  0.6000E-01
    -20.141  0.0000E+00  0.0000E+00  0.6000E-01  0.6000E-01
    -19.932  0.0000E+00  0.0000E+00  0.6000E-01  0.6000E-01
    -19.723  0.0000E+00  0.0000E+00  0.6000E-01  0.6000E-01
    -19.514  0.0000E+00  0.0000E+00  0.6000E-01  0.6000E-01
    -19.304  0.0000E+00  0.0000E+00  0.6000E-01  0.6000E-01
    -19.095  0.0000E+00  0.0000E+00  0.6000E-01  0.6000E-01
    -18.886  0.0000E+00  0.0000E+00  0.6000E-01  0.6000E-01
    -18.677  0.0000E+00  0.0000E+00  0.6000E-01  0.6000E-01
    -18.467  0.0000E+00  0.0000E+00  0.6000E-01  0.6000E-01
    -18.258  0.0000E+00  0.0000E+00  0.6000E-01  0.6000E-01
    -18.049  0.0000E+00  0.0000E+00  0.6000E-01  0.6000E-01
    -17.840  0.0000E+00  0.0000E+00  0.6000E-01  0.6000E-01
    -17.630  0.0000E+00  0.0000E+00  0.6000E-01  0.6000E-01
    -17.421  0.0000E+00  0.0000E+00  0.6000E-01  0.6000E-01
    -17.212  0.0000E+00  0.0000E+00  0.6000E-01  0.6000E-01
    -17.003  0.0000E+00  0.0000E+00  0.6000E-01  0.6000E-01
    -16.793  0.0000E+00  0.0000E+00  0.6000E-01  0.6000E-01
    -16.584  0.0000E+00  0.0000E+00  0.6000E-01  0.6000E-01
    -16.375  0.3746E-39  0.3746E-39  0.6000E-01  0.6000E-01
    -16.166  0.2481E-24  0.2481E-24  0.6000E-01  0.6000E-01
    -15.956  0.1923E-13  0.1923E-13  0.6000E-01  0.6000E-01
    -15.747  0.1115E-06  0.1115E-06  0.6000E-01  0.6000E-01
    -15.538 -0.2454E-04 -0.2454E-04  0.5999E-01  0.5999E-01
    -15.329  0.1135E-02  0.1135E-02  0.6023E-01  0.6023E-01
    -15.120  0.2871E-02  0.2871E-02  0.6083E-01  0.6083E-01
    -14.910  0.2578E-01  0.2578E-01  0.6623E-01  0.6623E-01
    -14.701  0.1927E-01  0.1927E-01  0.7026E-01  0.7026E-01
    -14.492  0.5070E-01  0.5070E-01  0.8087E-01  0.8087E-01
    -14.283  0.3993E-01  0.3993E-01  0.8922E-01  0.8922E-01
    -14.073  0.3249E-01  0.3249E-01  0.9602E-01  0.9602E-01
    -13.864  0.5169E-01  0.5169E-01  0.1068E+00  0.1068E+00
    -13.655  0.5656E-01  0.5656E-01  0.1187E+00  0.1187E+00
    -13.446  0.6365E-02  0.6365E-02  0.1200E+00  0.1200E+00
    -13.236 -0.6750E-05 -0.6750E-05  0.1200E+00  0.1200E+00
    -13.027  0.1084E-05  0.1084E-05  0.1200E+00  0.1200E+00
    -12.818  0.1016E-11  0.1016E-11  0.1200E+00  0.1200E+00
    -12.609  0.0000E+00  0.0000E+00  0.1200E+00  0.1200E+00
    -12.399  0.0000E+00  0.0000E+00  0.1200E+00  0.1200E+00
    -12.190  0.0000E+00  0.0000E+00  0.1200E+00  0.1200E+00
    -11.981  0.0000E+00  0.0000E+00  0.1200E+00  0.1200E+00
    -11.772  0.0000E+00  0.0000E+00  0.1200E+00  0.1200E+00
    -11.562  0.0000E+00  0.0000E+00  0.1200E+00  0.1200E+00
    -11.353  0.0000E+00  0.0000E+00  0.1200E+00  0.1200E+00
    -11.144  0.0000E+00  0.0000E+00  0.1200E+00  0.1200E+00
    -10.935  0.0000E+00  0.0000E+00  0.1200E+00  0.1200E+00
    -10.725  0.0000E+00  0.0000E+00  0.1200E+00  0.1200E+00
    -10.516  0.0000E+00  0.0000E+00  0.1200E+00  0.1200E+00
    -10.307  0.0000E+00  0.0000E+00  0.1200E+00  0.1200E+00
    -10.098  0.0000E+00  0.0000E+00  0.1200E+00  0.1200E+00
     -9.889  0.0000E+00  0.0000E+00  0.1200E+00  0.1200E+00
     -9.679  0.0000E+00  0.0000E+00  0.1200E+00  0.1200E+00
     -9.470  0.0000E+00  0.0000E+00  0.1200E+00  0.1200E+00
     -9.261  0.0000E+00  0.0000E+00  0.1200E+00  0.1200E+00
     -9.052  0.0000E+00  0.0000E+00  0.1200E+00  0.1200E+00
     -8.842  0.0000E+00  0.0000E+00  0.1200E+00  0.1200E+00
     -8.633  0.0000E+00  0.0000E+00  0.1200E+00  0.1200E+00
     -8.424  0.0000E+00  0.0000E+00  0.1200E+00  0.1200E+00
     -8.215  0.0000E+00  0.0000E+00  0.1200E+00  0.1200E+00
     -8.005  0.0000E+00  0.0000E+00  0.1200E+00  0.1200E+00
     -7.796  0.0000E+00  0.0000E+00  0.1200E+00  0.1200E+00
     -7.587  0.0000E+00  0.0000E+00  0.1200E+00  0.1200E+00
     -7.378  0.0000E+00  0.0000E+00  0.1200E+00  0.1200E+00
     -7.168  0.0000E+00  0.0000E+00  0.1200E+00  0.1200E+00
     -6.959  0.0000E+00  0.0000E+00  0.1200E+00  0.1200E+00
     -6.750  0.0000E+00  0.0000E+00  0.1200E+00  0.1200E+00
     -6.541  0.0000E+00  0.0000E+00  0.1200E+00  0.1200E+00
     -6.331  0.0000E+00  0.0000E+00  0.1200E+00  0.1200E+00
     -6.122  0.0000E+00  0.0000E+00  0.1200E+00  0.1200E+00
     -5.913  0.0000E+00  0.0000E+00  0.1200E+00  0.1200E+00
     -5.704  0.0000E+00  0.0000E+00  0.1200E+00  0.1200E+00
     -5.494  0.0000E+00  0.0000E+00  0.1200E+00  0.1200E+00
     -5.285  0.0000E+00  0.0000E+00  0.1200E+00  0.1200E+00
     -5.076  0.0000E+00  0.0000E+00  0.1200E+00  0.1200E+00
     -4.867  0.0000E+00  0.0000E+00  0.1200E+00  0.1200E+00
     -4.658  0.0000E+00  0.0000E+00  0.1200E+00  0.1200E+00
     -4.448  0.0000E+00  0.0000E+00  0.1200E+00  0.1200E+00
     -4.239  0.0000E+00  0.0000E+00  0.1200E+00  0.1200E+00
     -4.030  0.0000E+00  0.0000E+00  0.1200E+00  0.1200E+00
     -3.821  0.5049E-35  0.5049E-35  0.1200E+00  0.1200E+00
     -3.611  0.5315E-21  0.5315E-21  0.1200E+00  0.1200E+00
     -3.402  0.6245E-11  0.6245E-11  0.1200E+00  0.1200E+00
     -3.193  0.4551E-05  0.4551E-05  0.1200E+00  0.1200E+00
     -2.984 -0.7712E-04 -0.7712E-04  0.1200E+00  0.1200E+00
     -2.774  0.3532E-01  0.3532E-01  0.1274E+00  0.1274E+00
     -2.565  0.4407E-01  0.4407E-01  0.1366E+00  0.1366E+00
     -2.356  0.4352E-01  0.4352E-01  0.1457E+00  0.1457E+00
     -2.147  0.2423E-01  0.2423E-01  0.1508E+00  0.1508E+00
     -1.937  0.3186E-01  0.3186E-01  0.1574E+00  0.1574E+00
     -1.728  0.3449E-01  0.3449E-01  0.1647E+00  0.1647E+00
     -1.519  0.3051E-01  0.3051E-01  0.1710E+00  0.1710E+00
     -1.310  0.2793E-01  0.2793E-01  0.1769E+00  0.1769E+00
     -1.100  0.3540E-01  0.3540E-01  0.1843E+00  0.1843E+00
     -0.891  0.3057E-01  0.3057E-01  0.1907E+00  0.1907E+00
     -0.682  0.3619E-01  0.3619E-01  0.1983E+00  0.1983E+00
     -0.473  0.3606E-01  0.3606E-01  0.2058E+00  0.2058E+00
     -0.263  0.1943E-01  0.1943E-01  0.2099E+00  0.2099E+00
     -0.054  0.2782E-01  0.2782E-01  0.2157E+00  0.2157E+00
      0.155  0.2108E-01  0.2108E-01  0.2201E+00  0.2201E+00
      0.364  0.3316E-01  0.3316E-01  0.2270E+00  0.2270E+00
      0.573  0.4351E-01  0.4351E-01  0.2361E+00  0.2361E+00
      0.783  0.4842E-01  0.4842E-01  0.2463E+00  0.2463E+00
      0.992  0.5241E-01  0.5241E-01  0.2572E+00  0.2572E+00
      1.201  0.6257E-01  0.6257E-01  0.2703E+00  0.2703E+00
      1.410  0.5567E-01  0.5567E-01  0.2820E+00  0.2820E+00
      1.620  0.7848E-01  0.7848E-01  0.2984E+00  0.2984E+00
      1.829  0.7575E-02  0.7575E-02  0.3000E+00  0.3000E+00
      2.038  0.4907E-04  0.4907E-04  0.3000E+00  0.3000E+00
      2.247  0.4663E-07  0.4663E-07  0.3000E+00  0.3000E+00
      2.457  0.1678E-14  0.1678E-14  0.3000E+00  0.3000E+00
      2.666  0.0000E+00  0.0000E+00  0.3000E+00  0.3000E+00
      2.875  0.0000E+00  0.0000E+00  0.3000E+00  0.3000E+00
      3.084  0.0000E+00  0.0000E+00  0.3000E+00  0.3000E+00
      3.294  0.0000E+00  0.0000E+00  0.3000E+00  0.3000E+00
      3.503  0.0000E+00  0.0000E+00  0.3000E+00  0.3000E+00
      3.712  0.0000E+00  0.0000E+00  0.3000E+00  0.3000E+00
      3.921  0.0000E+00  0.0000E+00  0.3000E+00  0.3000E+00
      4.131  0.6558E-44  0.6558E-44  0.3000E+00  0.3000E+00
      4.340  0.7516E-28  0.7516E-28  0.3000E+00  0.3000E+00
      4.549  0.1066E-15  0.1066E-15  0.3000E+00  0.3000E+00
      4.758  0.1423E-07  0.1423E-07  0.3000E+00  0.3000E+00
      4.968  0.2410E-04  0.2410E-04  0.3000E+00  0.3000E+00
      5.177  0.4698E-02  0.4698E-02  0.3010E+00  0.3010E+00
      5.386  0.3586E-01  0.3586E-01  0.3085E+00  0.3085E+00
      5.595  0.2242E-01  0.2242E-01  0.3132E+00  0.3132E+00
      5.804  0.3153E-01  0.3153E-01  0.3198E+00  0.3198E+00
      6.014  0.1332E-01  0.1332E-01  0.3226E+00  0.3226E+00
      6.223  0.3988E-01  0.3988E-01  0.3309E+00  0.3309E+00
      6.432  0.3677E-01  0.3677E-01  0.3386E+00  0.3386E+00
      6.641  0.2760E-01  0.2760E-01  0.3444E+00  0.3444E+00
      6.851  0.5879E-01  0.5879E-01  0.3567E+00  0.3567E+00
      7.060  0.1598E-01  0.1598E-01  0.3600E+00  0.3600E+00
      7.269 -0.1027E-03 -0.1027E-03  0.3600E+00  0.3600E+00
      7.478  0.2876E-06  0.2876E-06  0.3600E+00  0.3600E+00
      7.688  0.1299E-13  0.1299E-13  0.3600E+00  0.3600E+00
      7.897  0.0000E+00  0.0000E+00  0.3600E+00  0.3600E+00
      8.106  0.0000E+00  0.0000E+00  0.3600E+00  0.3600E+00
      8.315  0.4474E-32  0.4474E-32  0.3600E+00  0.3600E+00
      8.525  0.8583E-19  0.8583E-19  0.3600E+00  0.3600E+00
      8.734  0.1737E-09  0.1737E-09  0.3600E+00  0.3600E+00
      8.943  0.1394E-04  0.1394E-04  0.3600E+00  0.3600E+00
      9.152  0.1059E-02  0.1059E-02  0.3602E+00  0.3602E+00
      9.362  0.1928E-01  0.1928E-01  0.3643E+00  0.3643E+00
      9.571  0.3256E-01  0.3256E-01  0.3711E+00  0.3711E+00
      9.780  0.1004E-01  0.1004E-01  0.3732E+00  0.3732E+00
      9.989  0.3681E-01  0.3681E-01  0.3809E+00  0.3809E+00
     10.199  0.1557E-01  0.1557E-01  0.3841E+00  0.3841E+00
     10.408  0.1157E-01  0.1157E-01  0.3866E+00  0.3866E+00
     10.617  0.8489E-02  0.8489E-02  0.3883E+00  0.3883E+00
     10.826  0.1316E-01  0.1316E-01  0.3911E+00  0.3911E+00
     11.035  0.1841E-01  0.1841E-01  0.3949E+00  0.3949E+00
     11.245  0.1902E-01  0.1902E-01  0.3989E+00  0.3989E+00
     11.454  0.2277E-01  0.2277E-01  0.4037E+00  0.4037E+00
     11.663  0.4161E-03  0.4161E-03  0.4038E+00  0.4038E+00
     11.872  0.2626E-02  0.2626E-02  0.4043E+00  0.4043E+00
     12.082  0.8358E-02  0.8358E-02  0.4061E+00  0.4061E+00
     12.291  0.1237E-01  0.1237E-01  0.4087E+00  0.4087E+00
     12.500  0.2395E-02  0.2395E-02  0.4092E+00  0.4092E+00
     12.709  0.4188E-02  0.4188E-02  0.4100E+00  0.4100E+00
     12.919 -0.1393E-03 -0.1393E-03  0.4100E+00  0.4100E+00
     13.128  0.2410E-06  0.2411E-06  0.4100E+00  0.4100E+00
     13.337  0.1626E-13  0.1627E-13  0.4100E+00  0.4100E+00
     13.546  0.0000E+00  0.0000E+00  0.4100E+00  0.4100E+00
     13.756  0.0000E+00  0.0000E+00  0.4100E+00  0.4100E+00
     13.965  0.0000E+00  0.0000E+00  0.4100E+00  0.4100E+00
     14.174  0.0000E+00  0.0000E+00  0.4100E+00  0.4100E+00
     14.383  0.0000E+00  0.0000E+00  0.4100E+00  0.4100E+00
     14.593  0.0000E+00  0.0000E+00  0.4100E+00  0.4100E+00
     14.802  0.0000E+00  0.0000E+00  0.4100E+00  0.4100E+00
     15.011  0.0000E+00  0.0000E+00  0.4100E+00  0.4100E+00
     15.220  0.0000E+00  0.0000E+00  0.4100E+00  0.4100E+00
     15.430  0.0000E+00  0.0000E+00  0.4100E+00  0.4100E+00
     15.639  0.0000E+00  0.0000E+00  0.4100E+00  0.4100E+00
     15.848  0.0000E+00  0.0000E+00  0.4100E+00  0.4100E+00
     16.057  0.0000E+00  0.0000E+00  0.4100E+00  0.4100E+00
     16.267  0.0000E+00  0.0000E+00  0.4100E+00  0.4100E+00
     16.476  0.0000E+00  0.0000E+00  0.4100E+00  0.4100E+00
     16.685  0.0000E+00  0.0000E+00  0.4100E+00  0.4100E+00
     16.894  0.0000E+00  0.0000E+00  0.4100E+00  0.4100E+00
     17.103  0.0000E+00  0.0000E+00  0.4100E+00  0.4100E+00
     17.313  0.0000E+00  0.0000E+00  0.4100E+00  0.4100E+00
     17.522  0.0000E+00  0.0000E+00  0.4100E+00  0.4100E+00
     17.731  0.0000E+00  0.0000E+00  0.4100E+00  0.4100E+00
     17.940  0.0000E+00  0.0000E+00  0.4100E+00  0.4100E+00
     18.150  0.0000E+00  0.0000E+00  0.4100E+00  0.4100E+00
     18.359  0.0000E+00  0.0000E+00  0.4100E+00  0.4100E+00
     18.568  0.0000E+00  0.0000E+00  0.4100E+00  0.4100E+00
     18.777  0.0000E+00  0.0000E+00  0.4100E+00  0.4100E+00
     18.987  0.0000E+00  0.0000E+00  0.4100E+00  0.4100E+00
     19.196  0.0000E+00  0.0000E+00  0.4100E+00  0.4100E+00
     19.405  0.0000E+00  0.0000E+00  0.4100E+00  0.4100E+00
     19.614  0.0000E+00  0.0000E+00  0.4100E+00  0.4100E+00
     19.824  0.0000E+00  0.0000E+00  0.4100E+00  0.4100E+00
     20.033  0.0000E+00  0.0000E+00  0.4100E+00  0.4100E+00
     20.242  0.0000E+00  0.0000E+00  0.4100E+00  0.4100E+00
     20.451  0.0000E+00  0.0000E+00  0.4100E+00  0.4100E+00
     20.661  0.0000E+00  0.0000E+00  0.4100E+00  0.4100E+00
     20.870  0.0000E+00  0.0000E+00  0.4100E+00  0.4100E+00
     21.079  0.0000E+00  0.0000E+00  0.4100E+00  0.4100E+00
     21.288  0.0000E+00  0.0000E+00  0.4100E+00  0.4100E+00
     21.498  0.0000E+00  0.0000E+00  0.4100E+00  0.4100E+00
     21.707  0.0000E+00  0.0000E+00  0.4100E+00  0.4100E+00
     21.916  0.0000E+00  0.0000E+00  0.4100E+00  0.4100E+00
     22.125  0.0000E+00  0.0000E+00  0.4100E+00  0.4100E+00
     22.334  0.0000E+00  0.0000E+00  0.4100E+00  0.4100E+00
     22.544  0.0000E+00  0.0000E+00  0.4100E+00  0.4100E+00
     22.753  0.0000E+00  0.0000E+00  0.4100E+00  0.4100E+00
     22.962  0.0000E+00  0.0000E+00  0.4100E+00  0.4100E+00
     23.171  0.0000E+00  0.0000E+00  0.4100E+00  0.4100E+00
     23.381  0.0000E+00  0.0000E+00  0.4100E+00  0.4100E+00
     23.590  0.0000E+00  0.0000E+00  0.4100E+00  0.4100E+00
     23.799  0.0000E+00  0.0000E+00  0.4100E+00  0.4100E+00
     24.008  0.0000E+00  0.0000E+00  0.4100E+00  0.4100E+00
     24.218  0.0000E+00  0.0000E+00  0.4100E+00  0.4100E+00
     24.427  0.0000E+00  0.0000E+00  0.4100E+00  0.4100E+00
     24.636  0.0000E+00  0.0000E+00  0.4100E+00  0.4100E+00
     24.845  0.0000E+00  0.0000E+00  0.4100E+00  0.4100E+00
     25.055  0.0000E+00  0.0000E+00  0.4100E+00  0.4100E+00
     25.264  0.0000E+00  0.0000E+00  0.4100E+00  0.4100E+00
     25.473  0.0000E+00  0.0000E+00  0.4100E+00  0.4100E+00
     25.682  0.0000E+00  0.0000E+00  0.4100E+00  0.4100E+00
     25.892  0.0000E+00  0.0000E+00  0.4100E+00  0.4100E+00
     26.101  0.0000E+00  0.0000E+00  0.4100E+00  0.4100E+00
     26.310  0.0000E+00  0.0000E+00  0.4100E+00  0.4100E+00
     26.519  0.0000E+00  0.0000E+00  0.4100E+00  0.4100E+00
     26.729  0.0000E+00  0.0000E+00  0.4100E+00  0.4100E+00
     26.938  0.0000E+00  0.0000E+00  0.4100E+00  0.4100E+00
     27.147  0.0000E+00  0.0000E+00  0.4100E+00  0.4100E+00
     27.356  0.0000E+00  0.0000E+00  0.4100E+00  0.4100E+00
     27.565  0.0000E+00  0.0000E+00  0.4100E+00  0.4100E+00
     27.775  0.0000E+00  0.0000E+00  0.4100E+00  0.4100E+00
     27.984  0.0000E+00  0.0000E+00  0.4100E+00  0.4100E+00
     28.193  0.0000E+00  0.0000E+00  0.4100E+00  0.4100E+00
     28.402  0.0000E+00  0.0000E+00  0.4100E+00  0.4100E+00
     28.612  0.0000E+00  0.0000E+00  0.4100E+00  0.4100E+00
     28.821  0.0000E+00  0.0000E+00  0.4100E+00  0.4100E+00
     29.030  0.0000E+00  0.0000E+00  0.4100E+00  0.4100E+00
     29.239  0.0000E+00  0.0000E+00  0.4100E+00  0.4100E+00
     29.449  0.0000E+00  0.0000E+00  0.4100E+00  0.4100E+00
     29.658  0.0000E+00  0.0000E+00  0.4100E+00  0.4100E+00
     29.867  0.0000E+00  0.0000E+00  0.4100E+00  0.4100E+00
     30.076  0.0000E+00  0.0000E+00  0.4100E+00  0.4100E+00
     30.286  0.0000E+00  0.0000E+00  0.4100E+00  0.4100E+00
     30.495  0.0000E+00  0.0000E+00  0.4100E+00  0.4100E+00
     30.704  0.0000E+00  0.0000E+00  0.4100E+00  0.4100E+00
     30.913  0.0000E+00  0.0000E+00  0.4100E+00  0.4100E+00
     31.123  0.0000E+00  0.0000E+00  0.4100E+00  0.4100E+00
     31.332  0.0000E+00  0.0000E+00  0.4100E+00  0.4100E+00
     31.541  0.0000E+00  0.0000E+00  0.4100E+00  0.4100E+00
     31.750  0.0000E+00  0.0000E+00  0.4100E+00  0.4100E+00
     31.960  0.0000E+00  0.0000E+00  0.4100E+00  0.4100E+00
     32.169  0.0000E+00  0.0000E+00  0.4100E+00  0.4100E+00
     32.378  0.0000E+00  0.0000E+00  0.4100E+00  0.4100E+00
     32.587  0.0000E+00  0.0000E+00  0.4100E+00  0.4100E+00
     32.796  0.0000E+00  0.0000E+00  0.4100E+00  0.4100E+00
     33.006  0.0000E+00  0.0000E+00  0.4100E+00  0.4100E+00
     33.215  0.0000E+00  0.0000E+00  0.4100E+00  0.4100E+00
     33.424  0.0000E+00  0.0000E+00  0.4100E+00  0.4100E+00
     33.633  0.0000E+00  0.0000E+00  0.4100E+00  0.4100E+00
     33.843  0.0000E+00  0.0000E+00  0.4100E+00  0.4100E+00
     34.052  0.0000E+00  0.0000E+00  0.4100E+00  0.4100E+00
     34.261  0.0000E+00  0.0000E+00  0.4100E+00  0.4100E+00
     34.470  0.0000E+00  0.0000E+00  0.4100E+00  0.4100E+00
     34.680  0.0000E+00  0.0000E+00  0.4100E+00  0.4100E+00
     34.889  0.0000E+00  0.0000E+00  0.4100E+00  0.4100E+00
     35.098  0.0000E+00  0.0000E+00  0.4100E+00  0.4100E+00
     35.307  0.0000E+00  0.0000E+00  0.4100E+00  0.4100E+00
     35.517  0.0000E+00  0.0000E+00  0.4100E+00  0.4100E+00
     35.726  0.0000E+00  0.0000E+00  0.4100E+00  0.4100E+00
     35.935  0.0000E+00  0.0000E+00  0.4100E+00  0.4100E+00
     36.144  0.0000E+00  0.0000E+00  0.4100E+00  0.4100E+00
     36.354  0.0000E+00  0.0000E+00  0.4100E+00  0.4100E+00
     36.563  0.0000E+00  0.0000E+00  0.4100E+00  0.4100E+00
     36.772  0.0000E+00  0.0000E+00  0.4100E+00  0.4100E+00
     36.981  0.0000E+00  0.0000E+00  0.4100E+00  0.4100E+00
     37.191  0.0000E+00  0.0000E+00  0.4100E+00  0.4100E+00
     37.400  0.0000E+00  0.0000E+00  0.4100E+00  0.4100E+00
     37.609  0.0000E+00  0.0000E+00  0.4100E+00  0.4100E+00
     37.818  0.0000E+00  0.0000E+00  0.4100E+00  0.4100E+00
     38.027  0.0000E+00  0.0000E+00  0.4100E+00  0.4100E+00
     38.237  0.0000E+00  0.0000E+00  0.4100E+00  0.4100E+00
     38.446  0.0000E+00  0.0000E+00  0.4100E+00  0.4100E+00
     38.655  0.0000E+00  0.0000E+00  0.4100E+00  0.4100E+00
     38.864  0.0000E+00  0.0000E+00  0.4100E+00  0.4100E+00
     39.074  0.0000E+00  0.0000E+00  0.4100E+00  0.4100E+00
     39.283  0.0000E+00  0.0000E+00  0.4100E+00  0.4100E+00
     39.492  0.0000E+00  0.0000E+00  0.4100E+00  0.4100E+00
     39.701  0.0000E+00  0.0000E+00  0.4100E+00  0.4100E+00
     39.911  0.0000E+00  0.0000E+00  0.4100E+00  0.4100E+00
     40.120  0.0000E+00  0.0000E+00  0.4100E+00  0.4100E+00
     40.329  0.0000E+00  0.0000E+00  0.4100E+00  0.4100E+00
     40.538  0.0000E+00  0.0000E+00  0.4100E+00  0.4100E+00
     40.748  0.0000E+00  0.0000E+00  0.4100E+00  0.4100E+00
     40.957  0.0000E+00  0.0000E+00  0.4100E+00  0.4100E+00
     41.166  0.0000E+00  0.0000E+00  0.4100E+00  0.4100E+00
     41.375  0.0000E+00  0.0000E+00  0.4100E+00  0.4100E+00
     41.585  0.0000E+00  0.0000E+00  0.4100E+00  0.4100E+00
