   30   30  300    2
  0.1112671E+02  0.5222990E-09  0.5222990E-09  0.1412924E-08  0.5000000E-15
  1.000000000000000E-004
  CAR 
 Crystal                                 
  180    5  123
 
  0.0000000E+00  0.0000000E+00  0.0000000E+00  0.4000000E-01
   1      -28.935279    -28.935279
   2      -28.935274    -28.935274
   3      -28.895416    -28.895416
   4      -28.895411    -28.895411
   5      -28.895387    -28.895387
   6      -28.895382    -28.895382
   7      -28.874615    -28.874615
   8      -28.828526    -28.828526
   9      -28.828499    -28.828499
  10      -28.813328    -28.813328
  11      -28.813323    -28.813323
  12      -28.813300    -28.813300
  13      -28.813295    -28.813295
  14      -28.771026    -28.771026
  15      -28.771022    -28.771022
  16      -28.730631    -28.730631
  17      -28.730606    -28.730606
  18      -28.678549    -28.678549
  19      -15.436114    -15.436114
  20      -15.050874    -15.050874
  21      -15.050824    -15.050824
  22      -14.676778    -14.676778
  23      -14.676755    -14.676755
  24      -14.406991    -14.406991
  25      -14.406968    -14.406968
  26      -14.406941    -14.406941
  27      -14.406917    -14.406917
  28      -14.222968    -14.222968
  29      -14.222921    -14.222921
  30      -13.827290    -13.827290
  31      -13.827267    -13.827267
  32      -13.827240    -13.827240
  33      -13.827217    -13.827217
  34      -13.772733    -13.772733
  35      -13.512681    -13.512681
  36      -13.512655    -13.512655
  37       -2.772037     -2.772037
  38       -2.771958     -2.771958
  39       -2.651508     -2.651508
  40       -2.480028     -2.480028
  41       -2.479769     -2.479769
  42       -2.409099     -2.409099
  43       -2.409075     -2.409075
  44       -2.409029     -2.409029
  45       -2.409005     -2.409005
  46       -2.095046     -2.095046
  47       -2.095022     -2.095022
  48       -1.703224     -1.703224
  49       -1.703208     -1.703208
  50       -1.702974     -1.702974
  51       -1.702957     -1.702957
  52       -1.439377     -1.439377
  53       -1.237749     -1.237749
  54       -1.237738     -1.237738
  55       -1.237723     -1.237723
  56       -1.237712     -1.237712
  57       -1.143390     -1.143390
  58       -1.143355     -1.143355
  59       -1.097451     -1.097451
  60       -1.097425     -1.097425
  61       -0.532572     -0.532572
  62       -0.447928     -0.447928
  63       -0.447891     -0.447891
  64       -0.094366     -0.094366
  65       -0.094327     -0.094327
  66       -0.094040     -0.094040
  67       -0.094002     -0.094002
  68        0.224722      0.224722
  69        0.224770      0.224770
  70        0.257759      0.257759
  71        0.644797      0.644797
  72        0.644832      0.644832
  73        0.912900      0.912900
  74        0.913290      0.913290
  75        0.985501      0.985501
  76        0.985579      0.985579
  77        1.040058      1.040058
  78        1.106976      1.106976
  79        1.106999      1.106999
  80        1.183866      1.183866
  81        1.183895      1.183895
  82        1.183992      1.183992
  83        1.184021      1.184021
  84        1.247972      1.247972
  85        1.625578      1.625578
  86        1.625585      1.625585
  87        1.625626      1.625626
  88        1.625634      1.625634
  89        1.695938      1.695938
  90        1.696176      1.696176
  91        5.281060      5.281060
  92        5.281121      5.281121
  93        5.672643      5.672643
  94        5.919530      5.919530
  95        5.919550      5.919550
  96        5.919587      5.919587
  97        5.919607      5.919607
  98        5.955144      5.955144
  99        5.955180      5.955180
 100        6.504585      6.504585
 101        6.504608      6.504608
 102        6.576706      6.576706
 103        6.576751      6.576751
 104        6.714997      6.714997
 105        6.715002      6.715002
 106        6.715022      6.715022
 107        6.715027      6.715027
 108        6.821231      6.821231
 109        9.387941      9.387941
 110        9.388027      9.388027
 111        9.456813      9.456813
 112        9.628796      9.628796
 113        9.628812      9.628812
 114        9.628898      9.628898
 115        9.628914      9.628914
 116       10.594742     10.594742
 117       10.594782     10.594782
 118       10.770909     10.770909
 119       10.770923     10.770923
 120       10.771205     10.771205
 121       10.771219     10.771219
 122       11.369802     11.369801
 123       11.370133     11.370132
 
  0.2000000E+00 -0.5551115E-16  0.0000000E+00  0.2400000E+00
   1      -28.933027    -28.933027
   2      -28.930397    -28.930397
   3      -28.927415    -28.927415
   4      -28.919462    -28.919462
   5      -28.895663    -28.895663
   6      -28.879143    -28.879143
   7      -28.858802    -28.858802
   8      -28.854794    -28.854794
   9      -28.851623    -28.851623
  10      -28.819481    -28.819481
  11      -28.801660    -28.801660
  12      -28.797448    -28.797448
  13      -28.782888    -28.782888
  14      -28.779355    -28.779355
  15      -28.777546    -28.777546
  16      -28.714911    -28.714911
  17      -28.713867    -28.713867
  18      -28.693163    -28.693163
  19      -15.287167    -15.287167
  20      -15.035454    -15.035454
  21      -14.998845    -14.998845
  22      -14.634750    -14.634750
  23      -14.565481    -14.565481
  24      -14.520040    -14.520040
  25      -14.398524    -14.398524
  26      -14.387289    -14.387289
  27      -14.342439    -14.342439
  28      -14.259370    -14.259370
  29      -14.173690    -14.173690
  30      -14.005692    -14.005692
  31      -13.866496    -13.866496
  32      -13.843587    -13.843587
  33      -13.741392    -13.741392
  34      -13.718011    -13.718011
  35      -13.677133    -13.677133
  36      -13.601550    -13.601550
  37       -2.828509     -2.828509
  38       -2.752949     -2.752949
  39       -2.708628     -2.708628
  40       -2.600804     -2.600804
  41       -2.578583     -2.578583
  42       -2.530716     -2.530716
  43       -2.412012     -2.412012
  44       -2.175744     -2.175744
  45       -2.137792     -2.137792
  46       -2.090730     -2.090730
  47       -2.068011     -2.068011
  48       -2.033609     -2.033609
  49       -1.834978     -1.834978
  50       -1.706490     -1.706490
  51       -1.683813     -1.683813
  52       -1.510621     -1.510621
  53       -1.485367     -1.485367
  54       -1.462357     -1.462357
  55       -1.232145     -1.232145
  56       -1.075009     -1.075009
  57       -1.052631     -1.052631
  58       -0.844983     -0.844983
  59       -0.822743     -0.822743
  60       -0.795619     -0.795619
  61       -0.669386     -0.669386
  62       -0.543717     -0.543717
  63       -0.514723     -0.514723
  64       -0.422964     -0.422964
  65       -0.108941     -0.108941
  66        0.127688      0.127688
  67        0.317533      0.317533
  68        0.393781      0.393781
  69        0.460231      0.460231
  70        0.581648      0.581648
  71        0.638103      0.638103
  72        0.663880      0.663880
  73        0.685849      0.685849
  74        0.810016      0.810016
  75        0.833945      0.833945
  76        0.873697      0.873697
  77        0.880852      0.880852
  78        0.987472      0.987472
  79        1.086228      1.086228
  80        1.174728      1.174728
  81        1.178832      1.178832
  82        1.322768      1.322768
  83        1.356870      1.356870
  84        1.402825      1.402825
  85        1.406066      1.406066
  86        1.492044      1.492044
  87        1.496640      1.496640
  88        1.498149      1.498149
  89        1.555751      1.555751
  90        1.600869      1.600869
  91        5.228078      5.228078
  92        5.380739      5.380739
  93        5.619174      5.619174
  94        5.668079      5.668079
  95        5.687055      5.687055
  96        5.728656      5.728656
  97        5.977067      5.977067
  98        6.091979      6.091979
  99        6.215227      6.215227
 100        6.292800      6.292800
 101        6.328400      6.328400
 102        6.414748      6.414748
 103        6.580891      6.580891
 104        6.714676      6.714676
 105        6.756122      6.756122
 106        6.808839      6.808839
 107        6.839179      6.839179
 108        6.852351      6.852351
 109        9.289362      9.289362
 110        9.419599      9.419599
 111        9.435832      9.435832
 112        9.442428      9.442428
 113        9.694313      9.694313
 114        9.875450      9.875450
 115        9.966626      9.966626
 116       10.243702     10.243702
 117       10.289336     10.289336
 118       10.944987     10.944987
 119       11.046176     11.046176
 120       11.231113     11.231113
 121       11.244453     11.244453
 122       11.310473     11.310473
 123       11.358390     11.358390
 
  0.4000000E+00 -0.1110223E-15  0.0000000E+00  0.2400000E+00
   1      -28.946805    -28.946805
   2      -28.937086    -28.937086
   3      -28.923368    -28.923368
   4      -28.914822    -28.914822
   5      -28.911531    -28.911531
   6      -28.890131    -28.890131
   7      -28.887650    -28.887650
   8      -28.863673    -28.863673
   9      -28.856033    -28.856033
  10      -28.824038    -28.824038
  11      -28.797114    -28.797114
  12      -28.793730    -28.793730
  13      -28.764109    -28.764109
  14      -28.761711    -28.761711
  15      -28.732338    -28.732338
  16      -28.724162    -28.724162
  17      -28.723516    -28.723516
  18      -28.697227    -28.697227
  19      -15.008749    -15.008749
  20      -14.940903    -14.940903
  21      -14.745206    -14.745206
  22      -14.641952    -14.641952
  23      -14.592256    -14.592256
  24      -14.550401    -14.550401
  25      -14.519240    -14.519240
  26      -14.318009    -14.318009
  27      -14.254383    -14.254383
  28      -14.251350    -14.251350
  29      -14.105175    -14.105175
  30      -14.063018    -14.063018
  31      -13.926617    -13.926617
  32      -13.904248    -13.904248
  33      -13.877607    -13.877607
  34      -13.814558    -13.814558
  35      -13.765030    -13.765030
  36      -13.723762    -13.723762
  37       -2.819055     -2.819055
  38       -2.749003     -2.749003
  39       -2.740283     -2.740283
  40       -2.738521     -2.738521
  41       -2.619478     -2.619478
  42       -2.546481     -2.546481
  43       -2.471667     -2.471667
  44       -2.463145     -2.463145
  45       -2.413642     -2.413642
  46       -2.221371     -2.221371
  47       -2.048447     -2.048447
  48       -1.830366     -1.830366
  49       -1.811417     -1.811417
  50       -1.683556     -1.683556
  51       -1.600915     -1.600915
  52       -1.518349     -1.518349
  53       -1.408460     -1.408460
  54       -1.184171     -1.184171
  55       -1.118647     -1.118647
  56       -1.017260     -1.017260
  57       -0.881678     -0.881678
  58       -0.874094     -0.874094
  59       -0.777117     -0.777117
  60       -0.476984     -0.476984
  61       -0.464923     -0.464923
  62       -0.445213     -0.445213
  63       -0.416360     -0.416360
  64       -0.183816     -0.183816
  65       -0.075276     -0.075276
  66        0.050856      0.050856
  67        0.078974      0.078974
  68        0.244381      0.244381
  69        0.396810      0.396810
  70        0.418680      0.418680
  71        0.485902      0.485902
  72        0.521301      0.521301
  73        0.697739      0.697739
  74        0.785167      0.785167
  75        0.831954      0.831954
  76        0.861983      0.861983
  77        0.909689      0.909689
  78        1.124739      1.124739
  79        1.137406      1.137406
  80        1.143636      1.143636
  81        1.155372      1.155372
  82        1.186884      1.186884
  83        1.249981      1.249981
  84        1.296965      1.296965
  85        1.424496      1.424496
  86        1.438559      1.438559
  87        1.462673      1.462673
  88        1.463634      1.463634
  89        1.560987      1.560987
  90        1.592790      1.592790
  91        5.328866      5.328866
  92        5.372196      5.372196
  93        5.378677      5.378677
  94        5.379651      5.379651
  95        5.617948      5.617948
  96        5.646070      5.646070
  97        5.959486      5.959486
  98        6.077689      6.077689
  99        6.148659      6.148659
 100        6.192836      6.192836
 101        6.277134      6.277134
 102        6.434097      6.434097
 103        6.531912      6.531912
 104        6.683269      6.683269
 105        6.729626      6.729626
 106        6.754770      6.754770
 107        6.765608      6.765608
 108        6.923114      6.923114
 109        9.288922      9.288922
 110        9.337872      9.337872
 111        9.498396      9.498396
 112        9.808707      9.808707
 113        9.887676      9.887676
 114        9.907627      9.907627
 115       10.056387     10.056387
 116       10.171147     10.171147
 117       10.718247     10.718247
 118       10.790779     10.790779
 119       10.901161     10.901161
 120       11.389358     11.389358
 121       11.692705     11.692705
 122       12.225875     12.225875
 123       12.281686     12.281686
 
  0.2000000E+00  0.2000000E+00  0.0000000E+00  0.2400000E+00
   1      -28.937524    -28.937524
   2      -28.937521    -28.937521
   3      -28.933931    -28.933931
   4      -28.912413    -28.912413
   5      -28.912406    -28.912406
   6      -28.881578    -28.881578
   7      -28.877366    -28.877366
   8      -28.877347    -28.877347
   9      -28.838392    -28.838392
  10      -28.816618    -28.816618
  11      -28.802686    -28.802686
  12      -28.796095    -28.796095
  13      -28.796075    -28.796075
  14      -28.746844    -28.746844
  15      -28.746834    -28.746834
  16      -28.711888    -28.711888
  17      -28.711875    -28.711875
  18      -28.708141    -28.708141
  19      -15.054339    -15.054339
  20      -14.920919    -14.920919
  21      -14.920889    -14.920889
  22      -14.566258    -14.566258
  23      -14.566251    -14.566251
  24      -14.513795    -14.513795
  25      -14.454902    -14.454902
  26      -14.454869    -14.454869
  27      -14.383211    -14.383211
  28      -14.086726    -14.086726
  29      -14.016641    -14.016641
  30      -14.016634    -14.016634
  31      -13.961982    -13.961982
  32      -13.952199    -13.952199
  33      -13.952173    -13.952173
  34      -13.759388    -13.759388
  35      -13.759383    -13.759383
  36      -13.672983    -13.672983
  37       -2.834947     -2.834947
  38       -2.834944     -2.834944
  39       -2.832368     -2.832368
  40       -2.613042     -2.613042
  41       -2.613036     -2.613036
  42       -2.554928     -2.554928
  43       -2.394843     -2.394843
  44       -2.394836     -2.394836
  45       -2.264739     -2.264739
  46       -2.177910     -2.177910
  47       -1.869421     -1.869421
  48       -1.869406     -1.869406
  49       -1.727151     -1.727151
  50       -1.727127     -1.727127
  51       -1.690452     -1.690452
  52       -1.486801     -1.486801
  53       -1.370755     -1.370755
  54       -1.336582     -1.336582
  55       -1.336574     -1.336574
  56       -1.101463     -1.101463
  57       -1.101448     -1.101448
  58       -1.033171     -1.033171
  59       -0.706691     -0.706691
  60       -0.706680     -0.706680
  61       -0.510507     -0.510507
  62       -0.510495     -0.510495
  63       -0.402069     -0.402069
  64        0.017890      0.017890
  65        0.017896      0.017896
  66        0.181355      0.181355
  67        0.311152      0.311152
  68        0.311160      0.311160
  69        0.405805      0.405805
  70        0.541696      0.541696
  71        0.541707      0.541707
  72        0.643236      0.643236
  73        0.643257      0.643257
  74        0.721916      0.721916
  75        0.826532      0.826532
  76        0.826537      0.826537
  77        0.918920      0.918920
  78        1.029618      1.029618
  79        1.047360      1.047360
  80        1.047378      1.047378
  81        1.193978      1.193978
  82        1.256312      1.256312
  83        1.256331      1.256331
  84        1.312933      1.312933
  85        1.426372      1.426372
  86        1.426385      1.426385
  87        1.458331      1.458331
  88        1.481457      1.481457
  89        1.481471      1.481471
  90        1.637637      1.637637
  91        5.302464      5.302464
  92        5.322937      5.322937
  93        5.322950      5.322950
  94        5.481269      5.481269
  95        5.684751      5.684751
  96        5.684768      5.684768
  97        5.849973      5.849973
  98        6.190341      6.190341
  99        6.190360      6.190360
 100        6.196762      6.196762
 101        6.336140      6.336140
 102        6.336161      6.336161
 103        6.611792      6.611792
 104        6.662830      6.662830
 105        6.662849      6.662849
 106        6.836314      6.836314
 107        6.836331      6.836331
 108        6.933345      6.933345
 109        9.171857      9.171857
 110        9.391478      9.391478
 111        9.391484      9.391484
 112        9.815940      9.815940
 113        9.815952      9.815952
 114        9.881842      9.881842
 115       10.115032     10.115032
 116       10.115037     10.115037
 117       10.535573     10.535573
 118       11.159292     11.159292
 119       11.159312     11.159312
 120       11.209748     11.209748
 121       11.243295     11.243295
 122       11.969760     11.969760
 123       11.969791     11.969791
 
  0.4000000E+00  0.2000000E+00  0.0000000E+00  0.2400000E+00
   1      -28.944324    -28.944324
   2      -28.933955    -28.933955
   3      -28.931200    -28.931200
   4      -28.931189    -28.931189
   5      -28.900146    -28.900146
   6      -28.900120    -28.900120
   7      -28.895780    -28.895780
   8      -28.842925    -28.842925
   9      -28.842912    -28.842912
  10      -28.834016    -28.834016
  11      -28.834004    -28.834004
  12      -28.780618    -28.780618
  13      -28.754711    -28.754711
  14      -28.754687    -28.754687
  15      -28.722924    -28.722924
  16      -28.722909    -28.722909
  17      -28.715640    -28.715640
  18      -28.712789    -28.712789
  19      -14.875115    -14.875115
  20      -14.783927    -14.783927
  21      -14.783894    -14.783894
  22      -14.693720    -14.693720
  23      -14.574662    -14.574662
  24      -14.574628    -14.574628
  25      -14.502620    -14.502620
  26      -14.307045    -14.307045
  27      -14.307021    -14.307021
  28      -14.174533    -14.174533
  29      -14.174499    -14.174499
  30      -14.035200    -14.035200
  31      -14.035157    -14.035157
  32      -13.898768    -13.898768
  33      -13.841935    -13.841935
  34      -13.820260    -13.820260
  35      -13.807180    -13.807180
  36      -13.807155    -13.807155
  37       -2.924548     -2.924548
  38       -2.838950     -2.838950
  39       -2.792186     -2.792186
  40       -2.791941     -2.791941
  41       -2.567418     -2.567418
  42       -2.567294     -2.567294
  43       -2.531053     -2.531053
  44       -2.287596     -2.287596
  45       -2.287583     -2.287583
  46       -2.079975     -2.079975
  47       -2.010051     -2.010051
  48       -2.009991     -2.009991
  49       -1.828899     -1.828899
  50       -1.828850     -1.828850
  51       -1.651303     -1.651303
  52       -1.240936     -1.240936
  53       -1.240820     -1.240820
  54       -1.206727     -1.206727
  55       -1.071165     -1.071165
  56       -1.071147     -1.071147
  57       -0.866444     -0.866444
  58       -0.866418     -0.866418
  59       -0.850633     -0.850633
  60       -0.590600     -0.590600
  61       -0.590491     -0.590491
  62       -0.562490     -0.562490
  63       -0.153248     -0.153248
  64       -0.153217     -0.153217
  65       -0.151967     -0.151967
  66       -0.083222     -0.083222
  67        0.260686      0.260686
  68        0.261016      0.261016
  69        0.342844      0.342844
  70        0.488775      0.488775
  71        0.554495      0.554495
  72        0.578883      0.578883
  73        0.579049      0.579049
  74        0.733365      0.733365
  75        0.733656      0.733656
  76        0.917394      0.917394
  77        0.989631      0.989631
  78        0.989786      0.989786
  79        1.035655      1.035655
  80        1.137559      1.137559
  81        1.137663      1.137663
  82        1.188803      1.188803
  83        1.328927      1.328927
  84        1.329027      1.329027
  85        1.336541      1.336541
  86        1.477949      1.477949
  87        1.478085      1.478085
  88        1.524582      1.524582
  89        1.579794      1.579794
  90        1.579905      1.579905
  91        5.136055      5.136055
  92        5.209171      5.209171
  93        5.209193      5.209193
  94        5.513189      5.513189
  95        5.513243      5.513243
  96        5.580071      5.580071
  97        6.122383      6.122383
  98        6.122473      6.122473
  99        6.183763      6.183763
 100        6.230597      6.230597
 101        6.401728      6.401728
 102        6.401766      6.401766
 103        6.533828      6.533828
 104        6.533841      6.533841
 105        6.740121      6.740121
 106        6.777472      6.777472
 107        6.777558      6.777558
 108        6.865410      6.865410
 109        9.364043      9.364043
 110        9.364130      9.364130
 111        9.394866      9.394866
 112        9.592819      9.592819
 113        9.875317      9.875317
 114        9.875370      9.875370
 115       10.245346     10.245346
 116       10.616470     10.616470
 117       10.616535     10.616535
 118       10.926132     10.926132
 119       10.926251     10.926251
 120       11.320352     11.320352
 121       12.253412     12.253412
 122       12.253681     12.253681
 123       12.587915     12.587916
