       N       E                     dE             d eps       ncg     rms          rms(c)
DAV:   1     0.179228572715E+04    0.17923E+04   -0.70709E+04  2540   0.111E+03
DAV:   2     0.853120938421E+01   -0.17838E+04   -0.16914E+04  2716   0.473E+02
DAV:   3    -0.268688526562E+03   -0.27722E+03   -0.26852E+03  3880   0.177E+02
DAV:   4    -0.279713668746E+03   -0.11025E+02   -0.10966E+02  3704   0.463E+01
DAV:   5    -0.279975701783E+03   -0.26203E+00   -0.26172E+00  4000   0.851E+00
DAV:   6    -0.279980800125E+03   -0.50983E-02   -0.50950E-02  3808   0.116E+00
DAV:   7    -0.279980956098E+03   -0.15597E-03   -0.15591E-03  3544   0.198E-01
DAV:   8    -0.279980962086E+03   -0.59878E-05   -0.59802E-05  2272   0.385E-02
DAV:   9    -0.279980963380E+03   -0.12936E-05   -0.12898E-05  2040   0.202E-02
DAV:  10    -0.279980963943E+03   -0.56316E-06   -0.56179E-06  1832   0.152E-02    0.104E+02
RMM:  11    -0.204201345587E+03    0.75780E+02   -0.26256E+02  3366   0.413E+01    0.346E+01
RMM:  12    -0.213139669493E+03   -0.89383E+01   -0.12918E+01  2999   0.146E+01    0.211E+01
RMM:  13    -0.232243512570E+03   -0.19104E+02   -0.22158E+01  2738   0.107E+01    0.947E+00
RMM:  14    -0.235535137675E+03   -0.32916E+01   -0.58387E+00  2746   0.107E+01    0.315E+00
RMM:  15    -0.236554373476E+03   -0.10192E+01   -0.34302E+00  2915   0.334E+00    0.239E+00
RMM:  16    -0.236663663515E+03   -0.10929E+00   -0.58975E-01  3140   0.252E+00    0.131E+00
RMM:  17    -0.236728138557E+03   -0.64475E-01   -0.29790E-01  3100   0.112E+00    0.622E-01
RMM:  18    -0.236726573837E+03    0.15647E-02   -0.20085E-02  3071   0.498E-01    0.290E-01
RMM:  19    -0.236726835076E+03   -0.26124E-03   -0.26954E-03  2548   0.159E-01    0.105E-01
RMM:  20    -0.236727123424E+03   -0.28835E-03   -0.83044E-04  2192   0.123E-01    0.127E-01
RMM:  21    -0.236727124183E+03   -0.75944E-06   -0.23480E-04  1687   0.722E-02
   1 F= -.23672712E+03 E0= -.23672712E+03  d E =-.236727E+03  mag=     0.0004
       N       E                     dE             d eps       ncg     rms          rms(c)
DAV:   1    -0.253891939755E+03   -0.17165E+02   -0.61241E+02  3160   0.105E+02    0.103E+02
RMM:   2    -0.238732023347E+03    0.15160E+02   -0.72738E+01  3436   0.372E+01    0.226E+01
RMM:   3    -0.234513405042E+03    0.42186E+01   -0.22277E+01  3136   0.165E+01    0.408E+00
RMM:   4    -0.233933159018E+03    0.58025E+00   -0.16322E+00  3192   0.591E+00    0.818E+00
RMM:   5    -0.233947685039E+03   -0.14526E-01   -0.42731E-01  3175   0.240E+00    0.528E+00
RMM:   6    -0.233892845281E+03    0.54840E-01   -0.20186E-01  3766   0.141E+00    0.176E+00
RMM:   7    -0.233893607557E+03   -0.76228E-03   -0.11553E-02  3439   0.405E-01    0.750E-01
RMM:   8    -0.233894242139E+03   -0.63458E-03   -0.23810E-03  3232   0.191E-01    0.700E-01
RMM:   9    -0.233893833286E+03    0.40885E-03   -0.20667E-03  3142   0.139E-01    0.646E-02
RMM:  10    -0.233893811807E+03    0.21479E-04   -0.22507E-04  1703   0.811E-02
   2 F= -.23389381E+03 E0= -.23389641E+03  d E =0.283331E+01  mag=    -0.0000
       N       E                     dE             d eps       ncg     rms          rms(c)
DAV:   1    -0.246933833136E+03   -0.13040E+02   -0.28173E+02  2840   0.733E+01    0.373E+01
RMM:   2    -0.239802474005E+03    0.71314E+01   -0.23274E+01  3078   0.235E+01    0.264E+01
RMM:   3    -0.239505364359E+03    0.29711E+00   -0.38813E+01  3126   0.189E+01    0.184E+01
RMM:   4    -0.237814817240E+03    0.16905E+01   -0.69203E+00  3147   0.841E+00    0.128E+00
RMM:   5    -0.237709761306E+03    0.10506E+00   -0.31938E-01  3428   0.205E+00    0.553E-01
RMM:   6    -0.237706481735E+03    0.32796E-02   -0.41824E-02  3362   0.725E-01    0.820E-01
RMM:   7    -0.237706251357E+03    0.23038E-03   -0.43144E-03  3143   0.234E-01    0.617E-01
RMM:   8    -0.237706470810E+03   -0.21945E-03   -0.13736E-02  2990   0.283E-01    0.243E-01
RMM:   9    -0.237705648059E+03    0.82275E-03   -0.15201E-03  2722   0.182E-01    0.998E-02
RMM:  10    -0.237705614135E+03    0.33923E-04   -0.24772E-04  1746   0.714E-02
   3 F= -.23770561E+03 E0= -.23770561E+03  d E =-.978490E+00  mag=     0.0000
       N       E                     dE             d eps       ncg     rms          rms(c)
DAV:   1    -0.237809813124E+03   -0.10417E+00   -0.13513E+02  2780   0.442E+01    0.785E+00
RMM:   2    -0.238168616900E+03   -0.35880E+00   -0.81968E+00  3030   0.125E+01    0.368E+00
RMM:   3    -0.238083690086E+03    0.84927E-01   -0.10270E+00  3133   0.458E+00    0.383E+00
RMM:   4    -0.238058338836E+03    0.25351E-01   -0.12412E-01  3468   0.142E+00    0.309E+00
RMM:   5    -0.238047093498E+03    0.11245E-01   -0.54279E-02  3271   0.608E-01    0.513E-01
RMM:   6    -0.238043992177E+03    0.31013E-02   -0.17224E-02  3123   0.431E-01    0.223E-01
RMM:   7    -0.238043697426E+03    0.29475E-03   -0.12279E-03  2430   0.146E-01    0.126E-01
RMM:   8    -0.238043918285E+03   -0.22086E-03   -0.17875E-03  2605   0.139E-01    0.226E-01
RMM:   9    -0.238043613204E+03    0.30508E-03   -0.37234E-04  1917   0.105E-01    0.248E-02
RMM:  10    -0.238043627981E+03   -0.14777E-04   -0.22841E-04  1669   0.579E-02
   4 F= -.23804363E+03 E0= -.23804497E+03  d E =-.338014E+00  mag=    -0.0000
       N       E                     dE             d eps       ncg     rms          rms(c)
DAV:   1    -0.238041304073E+03    0.23091E-02   -0.45117E+00  2830   0.809E+00    0.147E+00
RMM:   2    -0.238054487138E+03   -0.13183E-01   -0.26928E-01  3015   0.234E+00    0.618E-01
RMM:   3    -0.238052019028E+03    0.24681E-02   -0.35512E-02  3069   0.839E-01    0.538E-01
RMM:   4    -0.238050977125E+03    0.10419E-02   -0.44658E-03  3226   0.296E-01    0.540E-01
RMM:   5    -0.238050725906E+03    0.25122E-03   -0.12901E-03  2621   0.116E-01    0.741E-02
RMM:   6    -0.238050684285E+03    0.41621E-04   -0.68106E-04  2244   0.146E-01
   5 F= -.23805068E+03 E0= -.23805185E+03  d E =-.345070E+00  mag=     0.0000
       N       E                     dE             d eps       ncg     rms          rms(c)
DAV:   1    -0.238069778410E+03   -0.19053E-01   -0.39419E+01  2796   0.212E+01    0.343E+00
RMM:   2    -0.238170500500E+03   -0.10072E+00   -0.15008E+00  2800   0.564E+00    0.144E+00
RMM:   3    -0.238173257686E+03   -0.27572E-02   -0.24915E-01  3129   0.206E+00    0.102E+00
RMM:   4    -0.238165469391E+03    0.77883E-02   -0.19673E-02  3481   0.571E-01    0.931E-01
RMM:   5    -0.238164604751E+03    0.86464E-03   -0.59187E-03  2947   0.200E-01    0.224E-01
RMM:   6    -0.238164569350E+03    0.35400E-04   -0.99305E-04  2230   0.193E-01
   6 F= -.23816457E+03 E0= -.23816581E+03  d E =-.113885E+00  mag=     0.0000
       N       E                     dE             d eps       ncg     rms          rms(c)
DAV:   1    -0.237754558754E+03    0.41005E+00   -0.19920E+02  2764   0.478E+01    0.785E+00
RMM:   2    -0.238299032597E+03   -0.54447E+00   -0.83262E+00  2883   0.126E+01    0.290E+00
RMM:   3    -0.238289416987E+03    0.96156E-02   -0.12089E+00  3174   0.473E+00    0.252E+00
RMM:   4    -0.238257314770E+03    0.32102E-01   -0.99075E-02  3517   0.125E+00    0.212E+00
RMM:   5    -0.238252450569E+03    0.48642E-02   -0.21762E-02  3179   0.394E-01    0.758E-01
RMM:   6    -0.238251696689E+03    0.75388E-03   -0.67703E-03  2862   0.339E-01    0.371E-01
RMM:   7    -0.238251707200E+03   -0.10511E-04   -0.11122E-03  2065   0.101E-01    0.185E-01
RMM:   8    -0.238251698711E+03    0.84892E-05   -0.40493E-04  1840   0.115E-01
   7 F= -.23825170E+03 E0= -.23825170E+03  d E =-.201014E+00  mag=     0.0000
       N       E                     dE             d eps       ncg     rms          rms(c)
DAV:   1    -0.238233690150E+03    0.18017E-01   -0.83576E+00  2834   0.979E+00    0.158E+00
RMM:   2    -0.238254050647E+03   -0.20360E-01   -0.29631E-01  2662   0.264E+00    0.673E-01
RMM:   3    -0.238256769115E+03   -0.27185E-02   -0.56249E-02  3064   0.100E+00    0.391E-01
RMM:   4    -0.238254876573E+03    0.18925E-02   -0.46928E-03  3355   0.295E-01    0.386E-01
RMM:   5    -0.238254654072E+03    0.22250E-03   -0.15571E-03  2484   0.112E-01    0.365E-02
RMM:   6    -0.238254663693E+03   -0.96217E-05   -0.31136E-04  1885   0.131E-01
   8 F= -.23825466E+03 E0= -.23825466E+03  d E =-.203979E+00  mag=     0.0000
       N       E                     dE             d eps       ncg     rms          rms(c)
DAV:   1    -0.238254424861E+03    0.22921E-03   -0.26713E-01  2966   0.175E+00    0.428E-01
RMM:   2    -0.238255020596E+03   -0.59574E-03   -0.95929E-03  2701   0.464E-01    0.650E-02
RMM:   3    -0.238254978932E+03    0.41664E-04   -0.13649E-03  2372   0.185E-01    0.687E-02
RMM:   4    -0.238254961275E+03    0.17657E-04   -0.27404E-04  1606   0.119E-01
   9 F= -.23825496E+03 E0= -.23825496E+03  d E =-.204277E+00  mag=     0.0000
       N       E                     dE             d eps       ncg     rms          rms(c)
DAV:   1    -0.238253867310E+03    0.11116E-02   -0.41473E-01  2872   0.219E+00    0.337E-01
RMM:   2    -0.238254828547E+03   -0.96124E-03   -0.14594E-02  2664   0.587E-01    0.157E-01
RMM:   3    -0.238254877256E+03   -0.48709E-04   -0.24179E-03  2649   0.231E-01    0.717E-02
RMM:   4    -0.238254821273E+03    0.55984E-04   -0.34906E-04  1745   0.125E-01
  10 F= -.23825482E+03 E0= -.23825482E+03  d E =-.204137E+00  mag=     0.0000
       N       E                     dE             d eps       ncg     rms          rms(c)
DAV:   1    -0.238292278930E+03   -0.37402E-01   -0.29872E+00  2606   0.685E+00    0.312E+00
RMM:   2    -0.238269437425E+03    0.22842E-01   -0.23308E-01  2859   0.245E+00    0.844E-01
RMM:   3    -0.238260438020E+03    0.89994E-02   -0.82623E-02  3105   0.926E-01    0.232E-01
RMM:   4    -0.238258174748E+03    0.22633E-02   -0.53429E-03  2916   0.346E-01    0.365E-01
RMM:   5    -0.238258106865E+03    0.67883E-04   -0.58936E-04  2108   0.113E-01
  11 F= -.23825811E+03 E0= -.23826004E+03  d E =-.328559E-02  mag=    -0.0000
       N       E                     dE             d eps       ncg     rms          rms(c)
DAV:   1    -0.238266331382E+03   -0.81566E-02   -0.52922E-01  2600   0.286E+00    0.124E+00
RMM:   2    -0.238261594527E+03    0.47369E-02   -0.39798E-02  2950   0.993E-01    0.341E-01
RMM:   3    -0.238259927157E+03    0.16674E-02   -0.11840E-02  3010   0.365E-01    0.100E-01
RMM:   4    -0.238259600595E+03    0.32656E-03   -0.11250E-03  2085   0.189E-01    0.230E-01
RMM:   5    -0.238259621879E+03   -0.21284E-04   -0.10097E-04  1568   0.635E-02
  12 F= -.23825962E+03 E0= -.23826151E+03  d E =-.480061E-02  mag=     0.0000
       N       E                     dE             d eps       ncg     rms          rms(c)
DAV:   1    -0.238251022907E+03    0.85777E-02   -0.23708E+00  2748   0.574E+00    0.709E-01
RMM:   2    -0.238260798945E+03   -0.97760E-02   -0.12806E-01  3020   0.158E+00    0.925E-01
RMM:   3    -0.238260505089E+03    0.29386E-03   -0.11916E-02  3096   0.486E-01    0.101E+00
RMM:   4    -0.238260599610E+03   -0.94521E-04   -0.13554E-03  2569   0.167E-01    0.114E+00
RMM:   5    -0.238274720285E+03   -0.14121E-01   -0.35815E-02  2790   0.541E-01    0.360E+00
RMM:   6    -0.238270467496E+03    0.42528E-02   -0.16715E-01  2781   0.117E+00    0.297E+00
RMM:   7    -0.238261039493E+03    0.94280E-02   -0.23467E-02  2908   0.997E-01    0.109E+00
RMM:   8    -0.238259664140E+03    0.13754E-02   -0.60103E-03  2528   0.227E-01    0.588E-01
RMM:   9    -0.238259245583E+03    0.41856E-03   -0.14878E-03  2292   0.233E-01    0.211E-01
RMM:  10    -0.238259227185E+03    0.18398E-04   -0.73193E-04  2129   0.102E-01
  13 F= -.23825923E+03 E0= -.23826125E+03  d E =0.394694E-03  mag=    -0.0000
       N       E                     dE             d eps       ncg     rms          rms(c)
DAV:   1    -0.238259233906E+03    0.11677E-04   -0.68420E-01  2748   0.309E+00    0.435E-01
RMM:   2    -0.238262042161E+03   -0.28083E-02   -0.37339E-02  3060   0.839E-01    0.602E-01
RMM:   3    -0.238262037658E+03    0.45031E-05   -0.31302E-03  2727   0.257E-01    0.703E-01
RMM:   4    -0.238261645171E+03    0.39249E-03   -0.51509E-04  1929   0.127E-01    0.323E-01
RMM:   5    -0.238261562554E+03    0.82617E-04   -0.23502E-04  1609   0.724E-02
  14 F= -.23826156E+03 E0= -.23826351E+03  d E =-.194068E-02  mag=     0.0000
       N       E                     dE             d eps       ncg     rms          rms(c)
DAV:   1    -0.238261540114E+03    0.10506E-03   -0.13618E-03  3320   0.165E-01    0.187E-01
RMM:   2    -0.238261499797E+03    0.40316E-04   -0.10199E-04  1299   0.423E-02    0.151E-01
RMM:   3    -0.238261496110E+03    0.36875E-05   -0.15765E-04  1290   0.495E-02    0.753E-02
RMM:   4    -0.238261494360E+03    0.17503E-05   -0.35527E-05  1250   0.522E-02
  15 F= -.23826149E+03 E0= -.23826344E+03  d E =-.187248E-02  mag=     0.0000
       N       E                     dE             d eps       ncg     rms          rms(c)
DAV:   1    -0.238261500308E+03   -0.41977E-05   -0.50026E-04  2294   0.814E-02    0.147E-02
RMM:   2    -0.238261502477E+03   -0.21699E-05   -0.21362E-05  1244   0.298E-02    0.286E-02
RMM:   3    -0.238261503394E+03   -0.91623E-06   -0.65147E-06  1237   0.159E-02    0.183E-02
RMM:   4    -0.238261503276E+03    0.11793E-06   -0.16866E-06   819   0.975E-03
  16 F= -.23826150E+03 E0= -.23826345E+03  d E =-.188140E-02  mag=     0.0000
       N       E                     dE             d eps       ncg     rms          rms(c)
DAV:   1    -0.238261504798E+03   -0.14042E-05   -0.77336E-05  1266   0.353E-02    0.348E-02
RMM:   2    -0.238261505727E+03   -0.92952E-06   -0.79671E-06  1234   0.224E-02    0.270E-02
RMM:   3    -0.238261506263E+03   -0.53585E-06   -0.29052E-06  1180   0.914E-03    0.577E-03
RMM:   4    -0.238261506413E+03   -0.14951E-06   -0.56104E-07   809   0.733E-03
  17 F= -.23826151E+03 E0= -.23826346E+03  d E =-.188453E-02  mag=     0.0000
       N       E                     dE             d eps       ncg     rms          rms(c)
DAV:   1    -0.238262921015E+03   -0.14148E-02   -0.22340E-01  2783   0.178E+00    0.340E-01
RMM:   2    -0.238263305307E+03   -0.38429E-03   -0.13391E-02  3356   0.477E-01    0.129E-01
RMM:   3    -0.238263050317E+03    0.25499E-03   -0.16961E-03  2624   0.204E-01    0.582E-02
RMM:   4    -0.238263035563E+03    0.14754E-04   -0.32028E-04  1832   0.125E-01
  18 F= -.23826304E+03 E0= -.23826500E+03  d E =-.152915E-02  mag=     0.0000
       N       E                     dE             d eps       ncg     rms          rms(c)
DAV:   1    -0.238263441512E+03   -0.39120E-03   -0.37303E-01  2786   0.231E+00    0.368E-01
RMM:   2    -0.238264085138E+03   -0.64363E-03   -0.22776E-02  3376   0.616E-01    0.145E-01
RMM:   3    -0.238263659575E+03    0.42556E-03   -0.24131E-03  2744   0.239E-01    0.812E-02
RMM:   4    -0.238263601837E+03    0.57737E-04   -0.51149E-04  2110   0.140E-01
  19 F= -.23826360E+03 E0= -.23826559E+03  d E =-.209542E-02  mag=     0.0000
       N       E                     dE             d eps       ncg     rms          rms(c)
DAV:   1    -0.238264446419E+03   -0.78684E-03   -0.19761E-01  2780   0.185E+00    0.572E-01
RMM:   2    -0.238264837963E+03   -0.39154E-03   -0.15587E-02  3420   0.501E-01    0.266E-01
RMM:   3    -0.238264591353E+03    0.24661E-03   -0.27890E-03  2791   0.259E-01    0.558E-02
RMM:   4    -0.238264589705E+03    0.16478E-05   -0.37904E-04  1858   0.115E-01
  20 F= -.23826459E+03 E0= -.23826660E+03  d E =-.987867E-03  mag=    -0.0000
       N       E                     dE             d eps       ncg     rms          rms(c)
DAV:   1    -0.238264644181E+03   -0.52828E-04   -0.49915E-03  2822   0.296E-01    0.461E-02
RMM:   2    -0.238264651093E+03   -0.69116E-05   -0.43763E-04  1904   0.838E-02    0.349E-02
RMM:   3    -0.238264643464E+03    0.76283E-05   -0.71332E-05  1377   0.686E-02    0.255E-02
RMM:   4    -0.238264649429E+03   -0.59650E-05   -0.65774E-05  1262   0.311E-02
  21 F= -.23826465E+03 E0= -.23826667E+03  d E =-.104759E-02  mag=    -0.0000
       N       E                     dE             d eps       ncg     rms          rms(c)
DAV:   1    -0.238264174667E+03    0.46880E-03   -0.19635E-01  2780   0.180E+00    0.161E-01
RMM:   2    -0.238265303231E+03   -0.11286E-02   -0.13763E-02  3344   0.468E-01    0.198E-01
RMM:   3    -0.238265294722E+03    0.85089E-05   -0.85603E-04  2109   0.163E-01    0.209E-01
RMM:   4    -0.238265300251E+03   -0.55290E-05   -0.14852E-04  1624   0.763E-02
  22 F= -.23826530E+03 E0= -.23826734E+03  d E =-.650821E-03  mag=    -0.0000
       N       E                     dE             d eps       ncg     rms          rms(c)
DAV:   1    -0.238265229502E+03    0.65220E-04   -0.67187E-03  2798   0.325E-01    0.105E-01
RMM:   2    -0.238265222236E+03    0.72663E-05   -0.39985E-04  1824   0.847E-02    0.112E-01
RMM:   3    -0.238265220099E+03    0.21373E-05   -0.58118E-05  1400   0.600E-02    0.626E-02
RMM:   4    -0.238265211764E+03    0.83346E-05   -0.42795E-05  1306   0.287E-02
  23 F= -.23826521E+03 E0= -.23826724E+03  d E =-.562335E-03  mag=     0.0000
       N       E                     dE             d eps       ncg     rms          rms(c)
DAV:   1    -0.238265215004E+03    0.50949E-05   -0.21923E-03  2660   0.196E-01    0.160E-02
RMM:   2    -0.238265224726E+03   -0.97218E-05   -0.12168E-04  1526   0.515E-02    0.380E-02
RMM:   3    -0.238265227337E+03   -0.26113E-05   -0.22516E-05  1239   0.353E-02    0.142E-02
RMM:   4    -0.238265227233E+03    0.10356E-06   -0.69676E-06  1224   0.147E-02
  24 F= -.23826523E+03 E0= -.23826726E+03  d E =-.577804E-03  mag=    -0.0000
       N       E                     dE             d eps       ncg     rms          rms(c)
DAV:   1    -0.238265596808E+03   -0.36947E-03   -0.62342E-02  2508   0.872E-01    0.315E-01
RMM:   2    -0.238265495106E+03    0.10170E-03   -0.29348E-03  2908   0.258E-01    0.776E-02
RMM:   3    -0.238265408752E+03    0.86354E-04   -0.50627E-04  2030   0.867E-02    0.299E-02
RMM:   4    -0.238265403272E+03    0.54800E-05   -0.13559E-04  1276   0.897E-02
  25 F= -.23826540E+03 E0= -.23826747E+03  d E =-.176038E-03  mag=     0.0000
       N       E                     dE             d eps       ncg     rms          rms(c)
DAV:   1    -0.238265540386E+03   -0.13163E-03   -0.67529E-02  2476   0.913E-01    0.274E-01
RMM:   2    -0.238265434398E+03    0.10599E-03   -0.31995E-03  2930   0.271E-01    0.790E-02
RMM:   3    -0.238265347728E+03    0.86669E-04   -0.53528E-04  2032   0.900E-02    0.343E-02
RMM:   4    -0.238265341905E+03    0.58232E-05   -0.15665E-04  1395   0.952E-02
  26 F= -.23826534E+03 E0= -.23826743E+03  d E =-.114672E-03  mag=     0.0000
       N       E                     dE             d eps       ncg     rms          rms(c)
DAV:   1    -0.238265434092E+03   -0.86364E-04   -0.91957E-03  2636   0.332E-01    0.139E-01
RMM:   2    -0.238265407787E+03    0.26305E-04   -0.28693E-04  1436   0.925E-02    0.289E-02
RMM:   3    -0.238265401528E+03    0.62598E-05   -0.89071E-05  1232   0.588E-02    0.441E-02
RMM:   4    -0.238265402495E+03   -0.96705E-06   -0.63394E-05  1232   0.438E-02
  27 F= -.23826540E+03 E0= -.23826748E+03  d E =-.175261E-03  mag=     0.0000
       N       E                     dE             d eps       ncg     rms          rms(c)
DAV:   1    -0.238265440015E+03   -0.38487E-04   -0.69579E-03  2476   0.294E-01    0.614E-02
RMM:   2    -0.238265425197E+03    0.14818E-04   -0.22470E-04  1400   0.800E-02    0.427E-02
RMM:   3    -0.238265418383E+03    0.68138E-05   -0.85242E-05  1232   0.586E-02    0.187E-02
RMM:   4    -0.238265421546E+03   -0.31625E-05   -0.37028E-05  1232   0.359E-02
  28 F= -.23826542E+03 E0= -.23826749E+03  d E =-.194312E-03  mag=     0.0000
       N       E                     dE             d eps       ncg     rms          rms(c)
DAV:   1    -0.238265191965E+03    0.22642E-03   -0.82795E-02  2780   0.108E+00    0.815E-02
RMM:   2    -0.238265554421E+03   -0.36246E-03   -0.39900E-03  3238   0.263E-01    0.866E-02
RMM:   3    -0.238265542976E+03    0.11444E-04   -0.25081E-04  1786   0.968E-02    0.513E-02
RMM:   4    -0.238265539109E+03    0.38674E-05   -0.45161E-05  1410   0.400E-02
  29 F= -.23826554E+03 E0= -.23826764E+03  d E =-.117563E-03  mag=     0.0000
