 vasp.5.3.3 18Dez12 (build Sep  7 2015 22:32:56) complex                        
  
 executed on             LinuxIFC date 2022.12.22  17:58:43
 running on    1 total cores
 distrk:  each k-point on    1 cores,    1 groups
 distr:  one band on NCORES_PER_BAND=   1 cores,    1 groups


--------------------------------------------------------------------------------------------------------


 INCAR:
 POTCAR:    PAW_PBE Li 17Jan2003                  
 POTCAR:    PAW_PBE Nb_pv 08Apr2002               
 POTCAR:    PAW_PBE O 08Apr2002                   
 POTCAR:    PAW_PBE Li 17Jan2003                  
   VRHFIN =Li: s1p0                                                             
   LEXCH  = PE                                                                  
   EATOM  =     5.3001 eV,    0.3895 Ry                                         
                                                                                
   TITEL  = PAW_PBE Li 17Jan2003                                                
   LULTRA =        F    use ultrasoft PP ?                                      
   IUNSCR =        1    unscreen: 0-lin 1-nonlin 2-no                           
   RPACOR =    1.500    partial core radius                                     
   POMASS =    7.010; ZVAL   =    1.000    mass and valenz                      
   RCORE  =    2.050    outmost cutoff radius                                   
   RWIGS  =    2.600; RWIGS  =    1.376    wigner-seitz radius (au A)           
   ENMAX  =  140.000; ENMIN  =  100.000 eV                                      
   ICORE  =        2    local potential                                         
   LCOR   =        T    correct aug charges                                     
   LPAW   =        T    paw PP                                                  
   EAUG   =  331.638                                                            
   DEXC   =    0.000                                                            
   RMAX   =    2.098    core radius for proj-oper                               
   RAUG   =    1.300    factor for augmentation sphere                          
   RDEP   =    2.094    radius for radial grids                                 
   RDEPT  =    1.810    core radius for aug-charge                              
                                                                                
   Atomic configuration                                                         
    4 entries                                                                   
     n  l   j            E        occ.                                          
     1  0  0.50       -51.8549   2.0000                                         
     2  0  0.50        -2.8742   1.0000                                         
     2  1  0.50        -1.3606   0.0000                                         
     3  2  1.50        -1.3606   0.0000                                         
   Description                                                                  
     l       E           TYP  RCUT    TYP  RCUT                                 
     0     -2.8742052     23  2.050                                             
     0     27.2116520     23  2.050                                             
     1     -1.3605826     23  2.050                                             
     2     -1.3605826     23  2.050                                             
  local pseudopotential read in
  partial core-charges read in
  partial kinetic energy density read in
  atomic valenz-charges read in
  non local Contribution for L=           0  read in
    real space projection operators read in
  non local Contribution for L=           0  read in
    real space projection operators read in
  non local Contribution for L=           1  read in
    real space projection operators read in
    PAW grid and wavefunctions read in
 
   number of l-projection  operators is LMAX  =           3
   number of lm-projection operators is LMMAX =           5
 
 POTCAR:    PAW_PBE Nb_pv 08Apr2002               
   VRHFIN =Nb: 4p5s4d                                                           
   LEXCH  = PE                                                                  
   EATOM  =  1043.3917 eV,   76.6871 Ry                                         
                                                                                
   TITEL  = PAW_PBE Nb_pv 08Apr2002                                             
   LULTRA =        F    use ultrasoft PP ?                                      
   IUNSCR =        1    unscreen: 0-lin 1-nonlin 2-no                           
   RPACOR =    2.200    partial core radius                                     
   POMASS =   92.000; ZVAL   =   11.000    mass and valenz                      
   RCORE  =    2.750    outmost cutoff radius                                   
   RWIGS  =    2.840; RWIGS  =    1.503    wigner-seitz radius (au A)           
   ENMAX  =  208.608; ENMIN  =  156.456 eV                                      
   RCLOC  =    2.201    cutoff for local pot                                    
   LCOR   =        T    correct aug charges                                     
   LPAW   =        T    paw PP                                                  
   EAUG   =  355.067                                                            
   DEXC   =    0.000                                                            
   RMAX   =    2.804    core radius for proj-oper                               
   RAUG   =    1.300    factor for augmentation sphere                          
   RDEP   =    2.776    radius for radial grids                                 
   RDEPT  =    2.198    core radius for aug-charge                              
                                                                                
   Atomic configuration                                                         
   11 entries                                                                   
     n  l   j            E        occ.                                          
     1  0  0.50    -18805.2456   2.0000                                         
     2  0  0.50     -2630.2869   2.0000                                         
     2  1  1.50     -2348.4045   6.0000                                         
     3  0  0.50      -438.8756   2.0000                                         
     3  1  1.50      -346.7587   6.0000                                         
     3  2  2.50      -196.2559  10.0000                                         
     4  0  0.50       -58.3859   2.0000                                         
     4  1  1.50       -34.5141   6.0000                                         
     4  2  2.50        -3.0408   4.0000                                         
     5  0  0.50        -3.9816   1.0000                                         
     4  3  2.50        -1.3606   0.0000                                         
   Description                                                                  
     l       E           TYP  RCUT    TYP  RCUT                                 
     1    -34.5140617     23  2.600                                             
     1     -1.3605826     23  2.600                                             
     2     -3.0407924     23  2.600                                             
     2     -1.4463597     23  2.600                                             
     0     -3.9816219     23  2.750                                             
     0     20.4087390     23  2.750                                             
  local pseudopotential read in
  partial core-charges read in
  partial kinetic energy density read in
  atomic valenz-charges read in
  non local Contribution for L=           1  read in
    real space projection operators read in
  non local Contribution for L=           1  read in
    real space projection operators read in
  non local Contribution for L=           2  read in
    real space projection operators read in
  non local Contribution for L=           2  read in
    real space projection operators read in
  non local Contribution for L=           0  read in
    real space projection operators read in
  non local Contribution for L=           0  read in
    real space projection operators read in
    PAW grid and wavefunctions read in
 
   number of l-projection  operators is LMAX  =           6
   number of lm-projection operators is LMMAX =          18
 
 POTCAR:    PAW_PBE O 08Apr2002                   
   VRHFIN =O: s2p4                                                              
   LEXCH  = PE                                                                  
   EATOM  =   432.3788 eV,   31.7789 Ry                                         
                                                                                
   TITEL  = PAW_PBE O 08Apr2002                                                 
   LULTRA =        F    use ultrasoft PP ?                                      
   IUNSCR =        1    unscreen: 0-lin 1-nonlin 2-no                           
   RPACOR =    1.200    partial core radius                                     
   POMASS =   16.000; ZVAL   =    6.000    mass and valenz                      
   RCORE  =    1.520    outmost cutoff radius                                   
   RWIGS  =    1.550; RWIGS  =    0.820    wigner-seitz radius (au A)           
   ENMAX  =  400.000; ENMIN  =  300.000 eV                                      
   ICORE  =        2    local potential                                         
   LCOR   =        T    correct aug charges                                     
   LPAW   =        T    paw PP                                                  
   EAUG   =  605.392                                                            
   DEXC   =    0.000                                                            
   RMAX   =    1.553    core radius for proj-oper                               
   RAUG   =    1.300    factor for augmentation sphere                          
   RDEP   =    1.550    radius for radial grids                                 
   RDEPT  =    1.329    core radius for aug-charge                              
                                                                                
   Atomic configuration                                                         
    4 entries                                                                   
     n  l   j            E        occ.                                          
     1  0  0.50      -514.6923   2.0000                                         
     2  0  0.50       -23.9615   2.0000                                         
     2  1  0.50        -9.0305   4.0000                                         
     3  2  1.50        -9.5241   0.0000                                         
   Description                                                                  
     l       E           TYP  RCUT    TYP  RCUT                                 
     0    -23.9615318     23  1.200                                             
     0     -9.5240782     23  1.200                                             
     1     -9.0304911     23  1.520                                             
     1      8.1634956     23  1.520                                             
     2     -9.5240782      7  1.500                                             
  local pseudopotential read in
  partial core-charges read in
  partial kinetic energy density read in
  kinetic energy density of atom read in
  atomic valenz-charges read in
  non local Contribution for L=           0  read in
    real space projection operators read in
  non local Contribution for L=           0  read in
    real space projection operators read in
  non local Contribution for L=           1  read in
    real space projection operators read in
  non local Contribution for L=           1  read in
    real space projection operators read in
    PAW grid and wavefunctions read in
 
   number of l-projection  operators is LMAX  =           4
   number of lm-projection operators is LMMAX =           8
 

 ----------------------------------------------------------------------------- 
|                                                                             |
|  ADVICE TO THIS USER RUNNING 'VASP/VAMP'   (HEAR YOUR MASTER'S VOICE ...):  |
|                                                                             |
|      You have a (more or less) 'large supercell' and for larger cells       |
|      it might be more efficient to use real space projection opertators     |
|      So try LREAL= Auto  in the INCAR   file.                               |
|      Mind: At the moment your POTCAR file does not contain real space       |
|       projectors, and has to be modified,  BUT if you                       |
|      want to do an extremely  accurate calculation you might also keep the  |
|      reciprocal projection scheme          (i.e. LREAL=.FALSE.)             |
|                                                                             |
 ----------------------------------------------------------------------------- 

  PAW_PBE Li 17Jan2003                  :
 energy of atom  1       EATOM=   -5.3001
 kinetic energy error for atom=    0.0000 (will be added to EATOM!!)
  PAW_PBE Nb_pv 08Apr2002               :
 energy of atom  2       EATOM=-1043.3917
 kinetic energy error for atom=    0.0050 (will be added to EATOM!!)
  PAW_PBE O 08Apr2002                   :
 energy of atom  3       EATOM= -432.3788
 kinetic energy error for atom=    0.3782 (will be added to EATOM!!)
 
 
 POSCAR: Li6 Nb6 O18                             
  positions in direct lattice
  No initial velocities read in
 exchange correlation table for  LEXCH =        8
   RHO(1)=    0.500       N(1)  =     2000
   RHO(2)=  100.500       N(2)  =     4000
 


--------------------------------------------------------------------------------------------------------


 ion  position               nearest neighbor table
   1  0.667  0.333  0.051-  17 2.09  16 2.09  18 2.09  26 2.27  25 2.27  27 2.27  12 3.08  11 3.10
                            11 3.10  11 3.10   8 3.43   8 3.43   8 3.43
   2  0.000  0.000  0.217-  13 2.09  14 2.09  15 2.09  18 2.27  17 2.27  16 2.27  11 3.08   8 3.10
                             8 3.10   8 3.10   7 3.43   7 3.43   7 3.43
   3  0.333  0.667  0.384-  22 2.09  23 2.09  24 2.09  15 2.27  13 2.27  14 2.27   8 3.08   7 3.10
                             7 3.10   7 3.10  10 3.43  10 3.43  10 3.43
   4  0.667  0.333  0.551-  19 2.09  20 2.09  21 2.09  22 2.27  23 2.27  24 2.27   7 3.08  10 3.10
                            10 3.10  10 3.10   9 3.43   9 3.43   9 3.43
   5  0.000  0.000  0.717-  28 2.09  29 2.09  30 2.09  21 2.27  19 2.27  20 2.27  10 3.08   9 3.10
                             9 3.10   9 3.10  12 3.43  12 3.43  12 3.43
   6  0.333  0.667  0.884-  25 2.09  26 2.09  27 2.09  30 2.27  29 2.27  28 2.27   9 3.08  12 3.10
                            12 3.10  12 3.10  11 3.43  11 3.43  11 3.43
   7  0.667  0.333  0.333-  15 1.90  14 1.90  13 1.90  22 2.18  23 2.18  24 2.18   4 3.08   3 3.10
                             3 3.10   3 3.10   2 3.43   2 3.43   2 3.43
   8  0.333  0.667  0.166-  17 1.90  16 1.90  18 1.90  15 2.18  13 2.18  14 2.18   3 3.08   2 3.10
                             2 3.10   2 3.10   1 3.43   1 3.43   1 3.43
   9  0.333  0.667  0.666-  19 1.90  20 1.90  21 1.90  30 2.18  29 2.18  28 2.18   6 3.08   5 3.10
                             5 3.10   5 3.10   4 3.43   4 3.43   4 3.43
  10  0.000  0.000  0.499-  24 1.90  22 1.90  23 1.90  21 2.18  19 2.18  20 2.18   5 3.08   4 3.10
                             4 3.10   4 3.10   3 3.43   3 3.43   3 3.43
  11  0.000  0.000  0.999-  27 1.90  26 1.90  25 1.90  18 2.18  17 2.18  16 2.18   2 3.08   1 3.10
                             1 3.10   1 3.10   6 3.43   6 3.43   6 3.43
  12  0.667  0.333  0.833-  30 1.90  28 1.90  29 1.90  26 2.18  25 2.18  27 2.18   1 3.08   6 3.10
                             6 3.10   6 3.10   5 3.43   5 3.43   5 3.43
  13  0.620  0.990  0.270-   7 1.90   2 2.09   8 2.18   3 2.27
  14  0.010  0.630  0.270-   7 1.90   2 2.09   8 2.18   3 2.27
  15  0.370  0.380  0.270-   7 1.90   2 2.09   8 2.18   3 2.27
  16  0.036  0.323  0.103-   8 1.90   1 2.09  11 2.18   2 2.27
  17  0.677  0.713  0.103-   8 1.90   1 2.09  11 2.18   2 2.27
  18  0.287  0.964  0.103-   8 1.90   1 2.09  11 2.18   2 2.27
  19  0.287  0.323  0.603-   9 1.90   4 2.09  10 2.18   5 2.27
  20  0.677  0.964  0.603-   9 1.90   4 2.09  10 2.18   5 2.27
  21  0.036  0.713  0.603-   9 1.90   4 2.09  10 2.18   5 2.27
  22  0.703  0.657  0.437-  10 1.90   3 2.09   7 2.18   4 2.27
  23  0.343  0.046  0.437-  10 1.90   3 2.09   7 2.18   4 2.27
  24  0.954  0.297  0.437-  10 1.90   3 2.09   7 2.18   4 2.27
  25  0.954  0.657  0.937-  11 1.90   6 2.09  12 2.18   1 2.27
  26  0.343  0.297  0.937-  11 1.90   6 2.09  12 2.18   1 2.27
  27  0.703  0.046  0.937-  11 1.90   6 2.09  12 2.18   1 2.27
  28  0.370  0.990  0.770-  12 1.90   5 2.09   9 2.18   6 2.27
  29  0.010  0.380  0.770-  12 1.90   5 2.09   9 2.18   6 2.27
  30  0.620  0.630  0.770-  12 1.90   5 2.09   9 2.18   6 2.27
 
  LATTYP: Found a hexagonal cell.
 ALAT       =     5.2229900112
 C/A-ratio  =     2.7052017683
  
  Lattice vectors:
  
 A1 = (   2.6114950056,  -4.5232420335,   0.0000000000)
 A2 = (   2.6114950056,   4.5232420335,   0.0000000000)
 A3 = (   0.0000000000,   0.0000000000,  14.1292418142)


Analysis of symmetry for initial positions (statically):
=====================================================================
 Subroutine PRICEL returns following result:
 
  LATTYP: Found a trigonal (rhomboedric) cell.
 ALAT       =     5.5923990898
 COS(alpha) =     0.5638738957
  
  Lattice vectors:
  
 A1 = (  -2.6114950056,   1.5077473445,  -4.7097472714)
 A2 = (   2.6114950056,   1.5077473445,  -4.7097472714)
 A3 = (   0.0000000000,  -3.0154946890,  -4.7097472714)
 
   3 primitive cells build up your supercell.
 

 Routine SETGRP: Setting up the symmetry group for a 
 hexagonal supercell.


 Subroutine GETGRP returns: Found  6 space group operations
 (whereof  3 operations were pure point group operations)
 out of a pool of 24 trial point group operations.


The static configuration has the point symmetry C_3 .
 The point group associated with its full space group is C_3v.


Analysis of symmetry for dynamics (positions and initial velocities):
=====================================================================
 Subroutine PRICEL returns following result:
 
  LATTYP: Found a trigonal (rhomboedric) cell.
 ALAT       =     5.5923990898
 COS(alpha) =     0.5638738957
  
  Lattice vectors:
  
 A1 = (  -2.6114950056,   1.5077473445,  -4.7097472714)
 A2 = (   2.6114950056,   1.5077473445,  -4.7097472714)
 A3 = (   0.0000000000,  -3.0154946890,  -4.7097472714)
 
   3 primitive cells build up your supercell.
 

 Routine SETGRP: Setting up the symmetry group for a 
 hexagonal supercell.


 Subroutine GETGRP returns: Found  6 space group operations
 (whereof  3 operations were pure point group operations)
 out of a pool of 24 trial point group operations.


The dynamic configuration has the point symmetry C_3 .
 The point group associated with its full space group is C_3v.


Analysis of magnetic symmetry:
=====================================================================

 Subroutine MAGSYM returns: Found  6 space group operations
 (whereof  3 operations were pure point group operations)
 out of a pool of  6 trial space group operations
 (whereof  3 operations were pure point group operations)
 and found also     3 'primitive' translations


The magnetic configuration has the point symmetry C_3 .
 The point group associated with its full space group is C_3v.


 irot  :   1
 --------------------------------------------------------------------
 isymop:   1   0   0
           0   1   0
           0   0   1

 gtrans:     0.0000000     0.0000000     0.0000000

 ptrans:     0.0000000     0.0000000     0.0000000
 rotmap:
 (   1->   1)  (   2->   2)  (   3->   3)  (   4->   4)  (   5->   5) 
 (   6->   6)  (   7->   7)  (   8->   8)  (   9->   9)  (  10->  10) 
 (  11->  11)  (  12->  12)  (  13->  13)  (  14->  14)  (  15->  15) 
 (  16->  16)  (  17->  17)  (  18->  18)  (  19->  19)  (  20->  20) 
 (  21->  21)  (  22->  22)  (  23->  23)  (  24->  24)  (  25->  25) 
 (  26->  26)  (  27->  27)  (  28->  28)  (  29->  29)  (  30->  30) 

 ptrans:     0.3333333     0.6666667     0.6666667
 rotmap:
 (   1->   5)  (   2->   6)  (   3->   1)  (   4->   2)  (   5->   3) 
 (   6->   4)  (   7->  11)  (   8->  12)  (   9->   7)  (  10->   8) 
 (  11->   9)  (  12->  10)  (  13->  25)  (  14->  26)  (  15->  27) 
 (  16->  28)  (  17->  29)  (  18->  30)  (  19->  13)  (  20->  14) 
 (  21->  15)  (  22->  16)  (  23->  17)  (  24->  18)  (  25->  19) 
 (  26->  20)  (  27->  21)  (  28->  22)  (  29->  23)  (  30->  24) 

 ptrans:     0.6666667     0.3333333     0.3333333
 rotmap:
 (   1->   3)  (   2->   4)  (   3->   5)  (   4->   6)  (   5->   1) 
 (   6->   2)  (   7->   9)  (   8->  10)  (   9->  11)  (  10->  12) 
 (  11->   7)  (  12->   8)  (  13->  19)  (  14->  20)  (  15->  21) 
 (  16->  22)  (  17->  23)  (  18->  24)  (  19->  25)  (  20->  26) 
 (  21->  27)  (  22->  28)  (  23->  29)  (  24->  30)  (  25->  13) 
 (  26->  14)  (  27->  15)  (  28->  16)  (  29->  17)  (  30->  18) 


 irot  :   2
 --------------------------------------------------------------------
 isymop:   0  -1   0
           1  -1   0
           0   0   1

 gtrans:     0.0000000     0.0000000     0.0000000

 ptrans:     0.0000000     0.0000000     0.0000000
 rotmap:
 (   1->   1)  (   2->   2)  (   3->   3)  (   4->   4)  (   5->   5) 
 (   6->   6)  (   7->   7)  (   8->   8)  (   9->   9)  (  10->  10) 
 (  11->  11)  (  12->  12)  (  13->  14)  (  14->  15)  (  15->  13) 
 (  16->  17)  (  17->  18)  (  18->  16)  (  19->  20)  (  20->  21) 
 (  21->  19)  (  22->  23)  (  23->  24)  (  24->  22)  (  25->  26) 
 (  26->  27)  (  27->  25)  (  28->  29)  (  29->  30)  (  30->  28) 

 ptrans:     0.3333333     0.6666667     0.6666667
 rotmap:
 (   1->   5)  (   2->   6)  (   3->   1)  (   4->   2)  (   5->   3) 
 (   6->   4)  (   7->  11)  (   8->  12)  (   9->   7)  (  10->   8) 
 (  11->   9)  (  12->  10)  (  13->  26)  (  14->  27)  (  15->  25) 
 (  16->  29)  (  17->  30)  (  18->  28)  (  19->  14)  (  20->  15) 
 (  21->  13)  (  22->  17)  (  23->  18)  (  24->  16)  (  25->  20) 
 (  26->  21)  (  27->  19)  (  28->  23)  (  29->  24)  (  30->  22) 

 ptrans:     0.6666667     0.3333333     0.3333333
 rotmap:
 (   1->   3)  (   2->   4)  (   3->   5)  (   4->   6)  (   5->   1) 
 (   6->   2)  (   7->   9)  (   8->  10)  (   9->  11)  (  10->  12) 
 (  11->   7)  (  12->   8)  (  13->  20)  (  14->  21)  (  15->  19) 
 (  16->  23)  (  17->  24)  (  18->  22)  (  19->  26)  (  20->  27) 
 (  21->  25)  (  22->  29)  (  23->  30)  (  24->  28)  (  25->  14) 
 (  26->  15)  (  27->  13)  (  28->  17)  (  29->  18)  (  30->  16) 


 irot  :   3
 --------------------------------------------------------------------
 isymop:  -1   1   0
          -1   0   0
           0   0   1

 gtrans:     0.0000000     0.0000000     0.0000000

 ptrans:     0.0000000     0.0000000     0.0000000
 rotmap:
 (   1->   1)  (   2->   2)  (   3->   3)  (   4->   4)  (   5->   5) 
 (   6->   6)  (   7->   7)  (   8->   8)  (   9->   9)  (  10->  10) 
 (  11->  11)  (  12->  12)  (  13->  15)  (  14->  13)  (  15->  14) 
 (  16->  18)  (  17->  16)  (  18->  17)  (  19->  21)  (  20->  19) 
 (  21->  20)  (  22->  24)  (  23->  22)  (  24->  23)  (  25->  27) 
 (  26->  25)  (  27->  26)  (  28->  30)  (  29->  28)  (  30->  29) 

 ptrans:     0.3333333     0.6666667     0.6666667
 rotmap:
 (   1->   5)  (   2->   6)  (   3->   1)  (   4->   2)  (   5->   3) 
 (   6->   4)  (   7->  11)  (   8->  12)  (   9->   7)  (  10->   8) 
 (  11->   9)  (  12->  10)  (  13->  27)  (  14->  25)  (  15->  26) 
 (  16->  30)  (  17->  28)  (  18->  29)  (  19->  15)  (  20->  13) 
 (  21->  14)  (  22->  18)  (  23->  16)  (  24->  17)  (  25->  21) 
 (  26->  19)  (  27->  20)  (  28->  24)  (  29->  22)  (  30->  23) 

 ptrans:     0.6666667     0.3333333     0.3333333
 rotmap:
 (   1->   3)  (   2->   4)  (   3->   5)  (   4->   6)  (   5->   1) 
 (   6->   2)  (   7->   9)  (   8->  10)  (   9->  11)  (  10->  12) 
 (  11->   7)  (  12->   8)  (  13->  21)  (  14->  19)  (  15->  20) 
 (  16->  24)  (  17->  22)  (  18->  23)  (  19->  27)  (  20->  25) 
 (  21->  26)  (  22->  30)  (  23->  28)  (  24->  29)  (  25->  15) 
 (  26->  13)  (  27->  14)  (  28->  18)  (  29->  16)  (  30->  17) 


 irot  :   4
 --------------------------------------------------------------------
 isymop:  -1   1   0
           0   1   0
           0   0   1

 gtrans:     0.0000000     0.0000000    -0.5000000

 ptrans:     0.0000000     0.0000000     0.0000000
 rotmap:
 (   1->   4)  (   2->   5)  (   3->   6)  (   4->   1)  (   5->   2) 
 (   6->   3)  (   7->  12)  (   8->   9)  (   9->   8)  (  10->  11) 
 (  11->  10)  (  12->   7)  (  13->  28)  (  14->  30)  (  15->  29) 
 (  16->  19)  (  17->  21)  (  18->  20)  (  19->  16)  (  20->  18) 
 (  21->  17)  (  22->  25)  (  23->  27)  (  24->  26)  (  25->  22) 
 (  26->  24)  (  27->  23)  (  28->  13)  (  29->  15)  (  30->  14) 

 ptrans:     0.3333333     0.6666667     0.6666667
 rotmap:
 (   1->   2)  (   2->   3)  (   3->   4)  (   4->   5)  (   5->   6) 
 (   6->   1)  (   7->  10)  (   8->   7)  (   9->  12)  (  10->   9) 
 (  11->   8)  (  12->  11)  (  13->  22)  (  14->  24)  (  15->  23) 
 (  16->  13)  (  17->  15)  (  18->  14)  (  19->  28)  (  20->  30) 
 (  21->  29)  (  22->  19)  (  23->  21)  (  24->  20)  (  25->  16) 
 (  26->  18)  (  27->  17)  (  28->  25)  (  29->  27)  (  30->  26) 

 ptrans:     0.6666667     0.3333333     0.3333333
 rotmap:
 (   1->   6)  (   2->   1)  (   3->   2)  (   4->   3)  (   5->   4) 
 (   6->   5)  (   7->   8)  (   8->  11)  (   9->  10)  (  10->   7) 
 (  11->  12)  (  12->   9)  (  13->  16)  (  14->  18)  (  15->  17) 
 (  16->  25)  (  17->  27)  (  18->  26)  (  19->  22)  (  20->  24) 
 (  21->  23)  (  22->  13)  (  23->  15)  (  24->  14)  (  25->  28) 
 (  26->  30)  (  27->  29)  (  28->  19)  (  29->  21)  (  30->  20) 


 irot  :   5
 --------------------------------------------------------------------
 isymop:   1   0   0
           1  -1   0
           0   0   1

 gtrans:    -0.0000000     0.0000000    -0.5000000

 ptrans:     0.0000000     0.0000000     0.0000000
 rotmap:
 (   1->   4)  (   2->   5)  (   3->   6)  (   4->   1)  (   5->   2) 
 (   6->   3)  (   7->  12)  (   8->   9)  (   9->   8)  (  10->  11) 
 (  11->  10)  (  12->   7)  (  13->  30)  (  14->  29)  (  15->  28) 
 (  16->  21)  (  17->  20)  (  18->  19)  (  19->  18)  (  20->  17) 
 (  21->  16)  (  22->  27)  (  23->  26)  (  24->  25)  (  25->  24) 
 (  26->  23)  (  27->  22)  (  28->  15)  (  29->  14)  (  30->  13) 

 ptrans:     0.3333333     0.6666667     0.6666667
 rotmap:
 (   1->   2)  (   2->   3)  (   3->   4)  (   4->   5)  (   5->   6) 
 (   6->   1)  (   7->  10)  (   8->   7)  (   9->  12)  (  10->   9) 
 (  11->   8)  (  12->  11)  (  13->  24)  (  14->  23)  (  15->  22) 
 (  16->  15)  (  17->  14)  (  18->  13)  (  19->  30)  (  20->  29) 
 (  21->  28)  (  22->  21)  (  23->  20)  (  24->  19)  (  25->  18) 
 (  26->  17)  (  27->  16)  (  28->  27)  (  29->  26)  (  30->  25) 

 ptrans:     0.6666667     0.3333333     0.3333333
 rotmap:
 (   1->   6)  (   2->   1)  (   3->   2)  (   4->   3)  (   5->   4) 
 (   6->   5)  (   7->   8)  (   8->  11)  (   9->  10)  (  10->   7) 
 (  11->  12)  (  12->   9)  (  13->  18)  (  14->  17)  (  15->  16) 
 (  16->  27)  (  17->  26)  (  18->  25)  (  19->  24)  (  20->  23) 
 (  21->  22)  (  22->  15)  (  23->  14)  (  24->  13)  (  25->  30) 
 (  26->  29)  (  27->  28)  (  28->  21)  (  29->  20)  (  30->  19) 


 irot  :   6
 --------------------------------------------------------------------
 isymop:   0  -1   0
          -1   0   0
           0   0   1

 gtrans:     0.0000000     0.0000000    -0.5000000

 ptrans:     0.0000000     0.0000000     0.0000000
 rotmap:
 (   1->   4)  (   2->   5)  (   3->   6)  (   4->   1)  (   5->   2) 
 (   6->   3)  (   7->  12)  (   8->   9)  (   9->   8)  (  10->  11) 
 (  11->  10)  (  12->   7)  (  13->  29)  (  14->  28)  (  15->  30) 
 (  16->  20)  (  17->  19)  (  18->  21)  (  19->  17)  (  20->  16) 
 (  21->  18)  (  22->  26)  (  23->  25)  (  24->  27)  (  25->  23) 
 (  26->  22)  (  27->  24)  (  28->  14)  (  29->  13)  (  30->  15) 

 ptrans:     0.3333333     0.6666667     0.6666667
 rotmap:
 (   1->   2)  (   2->   3)  (   3->   4)  (   4->   5)  (   5->   6) 
 (   6->   1)  (   7->  10)  (   8->   7)  (   9->  12)  (  10->   9) 
 (  11->   8)  (  12->  11)  (  13->  23)  (  14->  22)  (  15->  24) 
 (  16->  14)  (  17->  13)  (  18->  15)  (  19->  29)  (  20->  28) 
 (  21->  30)  (  22->  20)  (  23->  19)  (  24->  21)  (  25->  17) 
 (  26->  16)  (  27->  18)  (  28->  26)  (  29->  25)  (  30->  27) 

 ptrans:     0.6666667     0.3333333     0.3333333
 rotmap:
 (   1->   6)  (   2->   1)  (   3->   2)  (   4->   3)  (   5->   4) 
 (   6->   5)  (   7->   8)  (   8->  11)  (   9->  10)  (  10->   7) 
 (  11->  12)  (  12->   9)  (  13->  17)  (  14->  16)  (  15->  18) 
 (  16->  26)  (  17->  25)  (  18->  27)  (  19->  23)  (  20->  22) 
 (  21->  24)  (  22->  14)  (  23->  13)  (  24->  15)  (  25->  29) 
 (  26->  28)  (  27->  30)  (  28->  20)  (  29->  19)  (  30->  21) 
 
 
 KPOINTS: K-points                                

Automatic generation of k-mesh.
Space group operators:
 irot       det(A)        alpha          n_x          n_y          n_z        tau_x        tau_y        tau_z
    1     1.000000     0.000000     1.000000     0.000000     0.000000     0.000000     0.000000     0.000000
    2     1.000000   120.000000     0.000000     0.000000    -1.000000     0.000000     0.000000     0.000000
    3     1.000000   120.000000     0.000000     0.000000     1.000000     0.000000     0.000000     0.000000
    4    -1.000000   180.000000     0.500000    -0.866025     0.000000     0.000000     0.000000    -0.500000
    5    -1.000000   180.000000    -0.500000    -0.866025     0.000000    -0.000000     0.000000    -0.500000
    6    -1.000000   180.000000     1.000000     0.000000     0.000000     0.000000     0.000000    -0.500000
 
 Subroutine IBZKPT returns following result:
 ===========================================
 
 Found      5 irreducible k-points:
 
 Following reciprocal coordinates:
            Coordinates               Weight
  0.000000  0.000000  0.000000      1.000000
  0.200000 -0.000000  0.000000      6.000000
  0.400000 -0.000000  0.000000      6.000000
  0.200000  0.200000  0.000000      6.000000
  0.400000  0.200000  0.000000      6.000000
 
 Following cartesian coordinates:
            Coordinates               Weight
  0.000000  0.000000  0.000000      1.000000
  0.038292 -0.022108  0.000000      6.000000
  0.076584 -0.044216  0.000000      6.000000
  0.076584  0.000000  0.000000      6.000000
  0.114877 -0.022108  0.000000      6.000000
 


--------------------------------------------------------------------------------------------------------




 Dimension of arrays:
   k-points           NKPTS =      5   k-points in BZ     NKDIM =      5   number of bands    NBANDS=    123
   number of dos      NEDOS =    301   number of ions     NIONS =     30
   non local maximal  LDIM  =      6   non local SUM 2l+1 LMDIM =     18
   total plane-waves  NPLWV =  40320
   max r-space proj   IRMAX =      1   max aug-charges    IRDMAX=   7635
   dimension x,y,z NGX =    24 NGY =   24 NGZ =   70
   dimension x,y,z NGXF=    48 NGYF=   48 NGZF=  140
   support grid    NGXF=    48 NGYF=   48 NGZF=  140
   ions per type =               6   6  18
 NGX,Y,Z   is equivalent  to a cutoff of   7.64,  7.64,  8.24 a.u.
 NGXF,Y,Z  is equivalent  to a cutoff of  15.28, 15.28, 16.47 a.u.


 I would recommend the setting:
   dimension x,y,z NGX =    24 NGY =   24 NGZ =   65
 SYSTEM =  Crystal                                 
 POSCAR =  Li6 Nb6 O18                             

 Startparameter for this run:
   NWRITE =      2    write-flag & timer
   PREC   = normal    normal or accurate (medium, high low for compatibility)
   ISTART =      0    job   : 0-new  1-cont  2-samecut
   ICHARG =      2    charge: 1-file 2-atom 10-const
   ISPIN  =      2    spin polarized calculation?
   LNONCOLLINEAR =      F non collinear calculations
   LSORBIT =      F    spin-orbit coupling
   INIWAV =      1    electr: 0-lowe 1-rand  2-diag
   LASPH  =      F    aspherical Exc in radial PAW
   METAGGA=      F    non-selfconsistent MetaGGA calc.

 Electronic Relaxation 1
   ENCUT  =  350.0 eV  25.72 Ry    5.07 a.u.   7.97  7.97 21.55*2*pi/ulx,y,z
   ENINI  =  350.0     initial cutoff
   ENAUG  =  605.4 eV  augmentation charge cutoff
   NELM   =     60;   NELMIN=  4; NELMDL=-10     # of ELM steps 
   EDIFF  = 0.1E-03   stopping-criterion for ELM
   LREAL  =      F    real-space projection
   NLSPLINE    = F    spline interpolate recip. space projectors
   LCOMPAT=      F    compatible to vasp.4.4
   GGA_COMPAT  = T    GGA compatible to vasp.4.4-vasp.4.6
   LMAXPAW     = -100 max onsite density
   LMAXMIX     =    2 max onsite mixed and CHGCAR
   VOSKOWN=      0    Vosko Wilk Nusair interpolation
   ROPT   =    0.00000   0.00000   0.00000
 Ionic relaxation
   EDIFFG = -.1E-01   stopping-criterion for IOM
   NSW    =    300    number of steps for IOM
   NBLOCK =      1;   KBLOCK =    300    inner block; outer block 
   IBRION =      2    ionic relax: 0-MD 1-quasi-New 2-CG
   NFREE  =      1    steps in history (QN), initial steepest desc. (CG)
   ISIF   =      3    stress and relaxation
   IWAVPR =     11    prediction:  0-non 1-charg 2-wave 3-comb
   ISYM   =      2    0-nonsym 1-usesym 2-fastsym
   LCORR  =      T    Harris-Foulkes like correction to forces

   POTIM  = 0.5000    time-step for ionic-motion
   TEIN   =    0.0    initial temperature
   TEBEG  =    0.0;   TEEND  =   0.0 temperature during run
   SMASS  =  -3.00    Nose mass-parameter (am)
   estimated Nose-frequenzy (Omega)   =  0.10E-29 period in steps =****** mass=  -0.623E-27a.u.
   SCALEE = 1.0000    scale energy and forces
   NPACO  =    256;   APACO  = 16.0  distance and # of slots for P.C.
   PSTRESS=    0.0 pullay stress

  Mass of Ions in am
   POMASS =   7.01 92.00 16.00
  Ionic Valenz
   ZVAL   =   1.00 11.00  6.00
  Atomic Wigner-Seitz radii
   RWIGS  =  -1.00 -1.00 -1.00
  virtual crystal weights 
   VCA    =   1.00  1.00  1.00
   NELECT =     180.0000    total number of electrons
   NUPDOWN=      -1.0000    fix difference up-down

 DOS related values:
   EMIN   =  10.00;   EMAX   =-10.00  energy-range for DOS
   EFERMI =   0.00
   ISMEAR =     2;   SIGMA  =   0.10  broadening in eV -4-tet -1-fermi 0-gaus

 Electronic relaxation 2 (details)
   IALGO  =     68    algorithm
   LDIAG  =      T    sub-space diagonalisation (order eigenvalues)
   LSUBROT=      T    optimize rotation matrix (better conditioning)
   TURBO    =      0    0=normal 1=particle mesh
   IRESTART =      0    0=no restart 2=restart with 2 vectors
   NREBOOT  =      0    no. of reboots
   NMIN     =      0    reboot dimension
   EREF     =   0.00    reference energy to select bands
   IMIX   =      4    mixing-type and parameters
     AMIX     =   0.40;   BMIX     =  1.00
     AMIX_MAG =   1.60;   BMIX_MAG =  1.00
     AMIN     =   0.10
     WC   =   100.;   INIMIX=   1;  MIXPRE=   1;  MAXMIX= -45

 Intra band minimization:
   WEIMIN = 0.0010     energy-eigenvalue tresh-hold
   EBREAK =  0.20E-06  absolut break condition
   DEPER  =   0.30     relativ break condition  

   TIME   =   0.40     timestep for ELM

  volume/ion in A,a.u.               =      11.13        75.09
  Fermi-wavevector in a.u.,A,eV,Ry     =   1.332508  2.518074 24.158186  1.775577
  Thomas-Fermi vector in A             =   2.461437
 
 Write flags
   LWAVE  =      F    write WAVECAR
   LCHARG =      F    write CHGCAR
   LVTOT  =      F    write LOCPOT, total local potential
   LVHAR  =      F    write LOCPOT, Hartree potential only
   LELF   =      F    write electronic localiz. function (ELF)
   LORBIT =      0    0 simple, 1 ext, 2 COOP (PROOUT)


 Dipole corrections
   LMONO  =      F    monopole corrections only (constant potential shift)
   LDIPOL =      F    correct potential (dipole corrections)
   IDIPOL =      0    1-x, 2-y, 3-z, 4-all directions 
   EPSILON=  1.0000000 bulk dielectric constant

 Exchange correlation treatment:
   GGA     =    --    GGA type
   LEXCH   =     8    internal setting for exchange type
   VOSKOWN=      0    Vosko Wilk Nusair interpolation
   LHFCALC =     F    Hartree Fock is set to
   LHFONE  =     F    Hartree Fock one center treatment
   AEXX    =    0.0000 exact exchange contribution

 Linear response parameters
   LEPSILON=     F    determine dielectric tensor
   LRPA    =     F    only Hartree local field effects (RPA)
   LNABLA  =     F    use nabla operator in PAW spheres
   LVEL    =     F    velocity operator in full k-point grid
   LINTERFAST=   F  fast interpolation
   KINTER  =     0    interpolate to denser k-point grid
   CSHIFT  =0.1000    complex shift for real part using Kramers Kronig
   OMEGAMAX=  -1.0    maximum frequency
   DEG_THRESHOLD= 0.2000000E-02 threshold for treating states as degnerate
   RTIME   =    0.100 relaxation time in fs

 Orbital magnetization related:
   ORBITALMAG=     F  switch on orbital magnetization
   LCHIMAG   =     F  perturbation theory with respect to B field
   DQ        =  0.001000  dq finite difference perturbation B field



--------------------------------------------------------------------------------------------------------


 conjugate gradient relaxation of ions
 charge density and potential will be updated during run
 spin polarized calculation
 RMM-DIIS sequential band-by-band and
  variant of blocked Davidson during initial phase
 perform sub-space diagonalisation
    before iterative eigenvector-optimisation
 modified Broyden-mixing scheme, WC =      100.0
 initial mixing is a Kerker type mixing with AMIX =  0.4000 and BMIX =      1.0000
 Hartree-type preconditioning will be used
 using additional bands           33
 reciprocal scheme for non local part
 use partial core corrections
 calculate Harris-corrections to forces 
   (improved forces if not selfconsistent)
 use gradient corrections 
 use of overlap-Matrix (Vanderbilt PP)
 Methfessel and Paxton  Order N= 2 SIGMA  =   0.10


--------------------------------------------------------------------------------------------------------


  energy-cutoff  :      350.00
  volume of cell :      333.80
      direct lattice vectors                 reciprocal lattice vectors
     2.611495006 -4.523242033  0.000000000     0.191461212 -0.110540183  0.000000000
     2.611495006  4.523242033  0.000000000     0.191461212  0.110540183  0.000000000
     0.000000000  0.000000000 14.129241814     0.000000000  0.000000000  0.070775206

  length of vectors
     5.222990011  5.222990011 14.129241814     0.221080365  0.221080365  0.070775206


 
 k-points in units of 2pi/SCALE and weight: K-points                                
   0.00000000  0.00000000  0.00000000       0.040
   0.03829224 -0.02210804  0.00000000       0.240
   0.07658448 -0.04421607  0.00000000       0.240
   0.07658448  0.00000000  0.00000000       0.240
   0.11487673 -0.02210804  0.00000000       0.240
 
 k-points in reciprocal lattice and weights: K-points                                
   0.00000000  0.00000000  0.00000000       0.040
   0.20000000 -0.00000000  0.00000000       0.240
   0.40000000 -0.00000000  0.00000000       0.240
   0.20000000  0.20000000  0.00000000       0.240
   0.40000000  0.20000000  0.00000000       0.240
 
 position of ions in fractional coordinates (direct lattice) 
   0.66666667  0.33333333  0.05050133
   0.00000000  0.00000000  0.21716800
   0.33333333  0.66666667  0.38383467
   0.66666667  0.33333333  0.55050133
   0.00000000  0.00000000  0.71716800
   0.33333333  0.66666667  0.88383467
   0.66666667  0.33333333  0.33256433
   0.33333333  0.66666667  0.16589767
   0.33333333  0.66666667  0.66589767
   0.00000000  0.00000000  0.49923100
   0.00000000  0.00000000  0.99923100
   0.66666667  0.33333333  0.83256433
   0.62036767  0.99005133  0.27000033
   0.00994867  0.63031633  0.27000033
   0.36968367  0.37963233  0.27000033
   0.03635033  0.32338467  0.10333367
   0.67661533  0.71296567  0.10333367
   0.28703433  0.96364967  0.10333367
   0.28703433  0.32338467  0.60333367
   0.67661533  0.96364967  0.60333367
   0.03635033  0.71296567  0.60333367
   0.70301700  0.65671800  0.43666700
   0.34328200  0.04629900  0.43666700
   0.95370100  0.29698300  0.43666700
   0.95370100  0.65671800  0.93666700
   0.34328200  0.29698300  0.93666700
   0.70301700  0.04629900  0.93666700
   0.36968367  0.99005133  0.77000033
   0.00994867  0.37963233  0.77000033
   0.62036767  0.63031633  0.77000033
 
 position of ions in cartesian coordinates  (Angst):
   2.61149501 -1.50774734  0.71354555
   0.00000000  0.00000000  3.06841919
   2.61149501  1.50774734  5.42329282
   2.61149501 -1.50774734  7.77816646
   0.00000000  0.00000000 10.13304009
   2.61149501  1.50774734 12.48791373
   2.61149501 -1.50774734  4.69888188
   2.61149501  1.50774734  2.34400825
   2.61149501  1.50774734  9.40862916
   0.00000000  0.00000000  7.05375552
   0.00000000  0.00000000 14.11837643
   2.61149501 -1.50774734 11.76350279
   4.20560118  1.67216870  3.81490000
   1.67204885  2.80607311  3.81490000
   1.95683499  0.04500023  3.81490000
   0.93944616  1.29832576  1.46002636
   3.62888384  0.16442136  1.46002636
   3.26615502  3.06049492  1.46002636
   1.59410617  0.16442136  8.52464727
   4.28354386  1.29832576  8.52464727
   1.95683499  3.06049492  8.52464727
   3.55094116 -0.20942158  6.16977364
   1.01738884 -1.34332599  6.16977364
   3.26615502 -2.97049446  6.16977364
   4.20560118 -1.34332599 13.23439454
   1.67204885 -0.20942158 13.23439454
   1.95683499 -2.97049446 13.23439454
   3.55094116  2.80607311 10.87952091
   1.01738884  1.67216870 10.87952091
   3.26615502  0.04500023 10.87952091
 


--------------------------------------------------------------------------------------------------------


 k-point  1 :   0.0000 0.0000 0.0000  plane waves:    4897
 k-point  2 :   0.2000-0.0000 0.0000  plane waves:    4960
 k-point  3 :   0.4000-0.0000 0.0000  plane waves:    4958
 k-point  4 :   0.2000 0.2000 0.0000  plane waves:    4962
 k-point  5 :   0.4000 0.2000 0.0000  plane waves:    4992

 maximum and minimum number of plane-waves per node :      4992     4897

 maximum number of plane-waves:      4992
 maximum index in each direction: 
   IXMAX=    7   IYMAX=    7   IZMAX=   21
   IXMIN=   -8   IYMIN=   -8   IZMIN=  -21

 WARNING: aliasing errors must be expected set NGX to  32 to avoid them
 WARNING: aliasing errors must be expected set NGY to  32 to avoid them
 WARNING: aliasing errors must be expected set NGZ to  86 to avoid them
 aliasing errors are usually negligible using standard VASP settings
 and one can safely disregard these warnings

 serial   3D FFT for wavefunctions
 parallel 3D FFT for charge:
    minimum data exchange during FFTs selected (reduces bandwidth)


 total amount of memory used by VASP on root node   190988. kBytes
========================================================================

   base      :      30000. kBytes
   nonl-proj :      13178. kBytes
   fftplans  :      11124. kBytes
   grid      :      31961. kBytes
   one-center:        933. kBytes
   wavefun   :     103792. kBytes
 
 Broyden mixing: mesh for mixing (old mesh)
   NGX = 15   NGY = 15   NGZ = 43
  (NGX  = 48   NGY  = 48   NGZ  =140)
  gives a total of   9675 points

 initial charge density was supplied:
 charge density of overlapping atoms calculated
 number of electron     180.0000000 magnetization      30.0000000
 keeping initial charge density in first step


--------------------------------------------------------------------------------------------------------


 Maximum index for augmentation-charges         7212 (set IRDMAX)


--------------------------------------------------------------------------------------------------------


 First call to EWALD:  gamma=   0.256
 Maximum number of real-space cells 4x 4x 2
 Maximum number of reciprocal cells 2x 2x 5

 FEWALD executed in parallel
    FEWALD:  cpu time    0.01: real time    0.01


----------------------------------------- Iteration    1(   1)  ---------------------------------------


    POTLOK:  cpu time    0.57: real time    0.57
    SETDIJ:  cpu time    0.22: real time    0.22
     EDDAV:  cpu time   38.06: real time   38.12
       DOS:  cpu time    0.01: real time    0.01
    --------------------------------------------
      LOOP:  cpu time   38.87: real time   38.92

 eigenvalue-minimisations  :  2540
 total energy-change (2. order) : 0.1792286E+04  (-0.7070864E+04)
 number of electron     180.0000000 magnetization      30.0000000
 augmentation part      180.0000000 magnetization      30.0000000

 Free energy of the ion-electron system (eV)
  ---------------------------------------------------
  alpha Z        PSCENC =       899.04847540
  Ewald energy   TEWEN  =    -10421.23681545
  -1/2 Hartree   DENC   =     -3706.02751757
  -exchange  EXHF       =         0.00000000
  -V(xc)+E(xc)   XCENC  =       634.52505980
  PAW double counting   =     11294.18101673   -11197.39956708
  entropy T*S    EENTRO =         0.00002391
  eigenvalues    EBANDS =       221.06329661
  atomic energy  EATOM  =     14068.13175480
  ---------------------------------------------------
  free energy    TOTEN  =      1792.28572715 eV

  energy without entropy =     1792.28570324  energy(sigma->0) =     1792.28572117


--------------------------------------------------------------------------------------------------------




----------------------------------------- Iteration    1(   2)  ---------------------------------------


     EDDAV:  cpu time   39.66: real time   39.70
       DOS:  cpu time    0.01: real time    0.01
    --------------------------------------------
      LOOP:  cpu time   39.67: real time   39.71

 eigenvalue-minimisations  :  2716
 total energy-change (2. order) :-0.1783755E+04  (-0.1691438E+04)
 number of electron     180.0000000 magnetization      30.0000000
 augmentation part      180.0000000 magnetization      30.0000000

 Free energy of the ion-electron system (eV)
  ---------------------------------------------------
  alpha Z        PSCENC =       899.04847540
  Ewald energy   TEWEN  =    -10421.23681545
  -1/2 Hartree   DENC   =     -3706.02751757
  -exchange  EXHF       =         0.00000000
  -V(xc)+E(xc)   XCENC  =       634.52505980
  PAW double counting   =     11294.18101673   -11197.39956708
  entropy T*S    EENTRO =         0.00348399
  eigenvalues    EBANDS =     -1562.69468123
  atomic energy  EATOM  =     14068.13175480
  ---------------------------------------------------
  free energy    TOTEN  =         8.53120938 eV

  energy without entropy =        8.52772540  energy(sigma->0) =        8.53033839


--------------------------------------------------------------------------------------------------------




----------------------------------------- Iteration    1(   3)  ---------------------------------------


     EDDAV:  cpu time   52.47: real time   52.53
       DOS:  cpu time    0.00: real time    0.00
    --------------------------------------------
      LOOP:  cpu time   52.47: real time   52.53

 eigenvalue-minimisations  :  3880
 total energy-change (2. order) :-0.2772197E+03  (-0.2685196E+03)
 number of electron     180.0000000 magnetization      30.0000000
 augmentation part      180.0000000 magnetization      30.0000000

 Free energy of the ion-electron system (eV)
  ---------------------------------------------------
  alpha Z        PSCENC =       899.04847540
  Ewald energy   TEWEN  =    -10421.23681545
  -1/2 Hartree   DENC   =     -3706.02751757
  -exchange  EXHF       =         0.00000000
  -V(xc)+E(xc)   XCENC  =       634.52505980
  PAW double counting   =     11294.18101673   -11197.39956708
  entropy T*S    EENTRO =        -0.00000000
  eigenvalues    EBANDS =     -1839.91093319
  atomic energy  EATOM  =     14068.13175480
  ---------------------------------------------------
  free energy    TOTEN  =      -268.68852656 eV

  energy without entropy =     -268.68852656  energy(sigma->0) =     -268.68852656


--------------------------------------------------------------------------------------------------------




----------------------------------------- Iteration    1(   4)  ---------------------------------------


     EDDAV:  cpu time   50.46: real time   50.52
       DOS:  cpu time    0.00: real time    0.00
    --------------------------------------------
      LOOP:  cpu time   50.46: real time   50.52

 eigenvalue-minimisations  :  3704
 total energy-change (2. order) :-0.1102514E+02  (-0.1096614E+02)
 number of electron     180.0000000 magnetization      30.0000000
 augmentation part      180.0000000 magnetization      30.0000000

 Free energy of the ion-electron system (eV)
  ---------------------------------------------------
  alpha Z        PSCENC =       899.04847540
  Ewald energy   TEWEN  =    -10421.23681545
  -1/2 Hartree   DENC   =     -3706.02751757
  -exchange  EXHF       =         0.00000000
  -V(xc)+E(xc)   XCENC  =       634.52505980
  PAW double counting   =     11294.18101673   -11197.39956708
  entropy T*S    EENTRO =        -0.00000000
  eigenvalues    EBANDS =     -1850.93607537
  atomic energy  EATOM  =     14068.13175480
  ---------------------------------------------------
  free energy    TOTEN  =      -279.71366875 eV

  energy without entropy =     -279.71366875  energy(sigma->0) =     -279.71366875


--------------------------------------------------------------------------------------------------------




----------------------------------------- Iteration    1(   5)  ---------------------------------------


     EDDAV:  cpu time   53.62: real time   53.68
       DOS:  cpu time    0.00: real time    0.00
    --------------------------------------------
      LOOP:  cpu time   53.62: real time   53.68

 eigenvalue-minimisations  :  4000
 total energy-change (2. order) :-0.2620330E+00  (-0.2617182E+00)
 number of electron     180.0000000 magnetization      30.0000000
 augmentation part      180.0000000 magnetization      30.0000000

 Free energy of the ion-electron system (eV)
  ---------------------------------------------------
  alpha Z        PSCENC =       899.04847540
  Ewald energy   TEWEN  =    -10421.23681545
  -1/2 Hartree   DENC   =     -3706.02751757
  -exchange  EXHF       =         0.00000000
  -V(xc)+E(xc)   XCENC  =       634.52505980
  PAW double counting   =     11294.18101673   -11197.39956708
  entropy T*S    EENTRO =        -0.00000000
  eigenvalues    EBANDS =     -1851.19810841
  atomic energy  EATOM  =     14068.13175480
  ---------------------------------------------------
  free energy    TOTEN  =      -279.97570178 eV

  energy without entropy =     -279.97570178  energy(sigma->0) =     -279.97570178


--------------------------------------------------------------------------------------------------------




----------------------------------------- Iteration    1(   6)  ---------------------------------------


     EDDAV:  cpu time   51.54: real time   51.60
       DOS:  cpu time    0.00: real time    0.00
    --------------------------------------------
      LOOP:  cpu time   51.54: real time   51.60

 eigenvalue-minimisations  :  3808
 total energy-change (2. order) :-0.5098342E-02  (-0.5095035E-02)
 number of electron     180.0000000 magnetization      30.0000000
 augmentation part      180.0000000 magnetization      30.0000000

 Free energy of the ion-electron system (eV)
  ---------------------------------------------------
  alpha Z        PSCENC =       899.04847540
  Ewald energy   TEWEN  =    -10421.23681545
  -1/2 Hartree   DENC   =     -3706.02751757
  -exchange  EXHF       =         0.00000000
  -V(xc)+E(xc)   XCENC  =       634.52505980
  PAW double counting   =     11294.18101673   -11197.39956708
  entropy T*S    EENTRO =        -0.00000000
  eigenvalues    EBANDS =     -1851.20320675
  atomic energy  EATOM  =     14068.13175480
  ---------------------------------------------------
  free energy    TOTEN  =      -279.98080012 eV

  energy without entropy =     -279.98080012  energy(sigma->0) =     -279.98080012


--------------------------------------------------------------------------------------------------------




----------------------------------------- Iteration    1(   7)  ---------------------------------------


     EDDAV:  cpu time   48.70: real time   48.76
       DOS:  cpu time    0.00: real time    0.00
    --------------------------------------------
      LOOP:  cpu time   48.70: real time   48.76

 eigenvalue-minimisations  :  3544
 total energy-change (2. order) :-0.1559738E-03  (-0.1559066E-03)
 number of electron     180.0000000 magnetization      30.0000000
 augmentation part      180.0000000 magnetization      30.0000000

 Free energy of the ion-electron system (eV)
  ---------------------------------------------------
  alpha Z        PSCENC =       899.04847540
  Ewald energy   TEWEN  =    -10421.23681545
  -1/2 Hartree   DENC   =     -3706.02751757
  -exchange  EXHF       =         0.00000000
  -V(xc)+E(xc)   XCENC  =       634.52505980
  PAW double counting   =     11294.18101673   -11197.39956708
  entropy T*S    EENTRO =        -0.00000000
  eigenvalues    EBANDS =     -1851.20336272
  atomic energy  EATOM  =     14068.13175480
  ---------------------------------------------------
  free energy    TOTEN  =      -279.98095610 eV

  energy without entropy =     -279.98095610  energy(sigma->0) =     -279.98095610


--------------------------------------------------------------------------------------------------------




----------------------------------------- Iteration    1(   8)  ---------------------------------------


     EDDAV:  cpu time   35.05: real time   35.09
       DOS:  cpu time    0.00: real time    0.00
    --------------------------------------------
      LOOP:  cpu time   35.05: real time   35.09

 eigenvalue-minimisations  :  2272
 total energy-change (2. order) :-0.5987788E-05  (-0.5980215E-05)
 number of electron     180.0000000 magnetization      30.0000000
 augmentation part      180.0000000 magnetization      30.0000000

 Free energy of the ion-electron system (eV)
  ---------------------------------------------------
  alpha Z        PSCENC =       899.04847540
  Ewald energy   TEWEN  =    -10421.23681545
  -1/2 Hartree   DENC   =     -3706.02751757
  -exchange  EXHF       =         0.00000000
  -V(xc)+E(xc)   XCENC  =       634.52505980
  PAW double counting   =     11294.18101673   -11197.39956708
  entropy T*S    EENTRO =        -0.00000000
  eigenvalues    EBANDS =     -1851.20336871
  atomic energy  EATOM  =     14068.13175480
  ---------------------------------------------------
  free energy    TOTEN  =      -279.98096209 eV

  energy without entropy =     -279.98096209  energy(sigma->0) =     -279.98096209


--------------------------------------------------------------------------------------------------------




----------------------------------------- Iteration    1(   9)  ---------------------------------------


     EDDAV:  cpu time   32.43: real time   32.47
       DOS:  cpu time    0.00: real time    0.00
    --------------------------------------------
      LOOP:  cpu time   32.44: real time   32.47

 eigenvalue-minimisations  :  2040
 total energy-change (2. order) :-0.1293594E-05  (-0.1289772E-05)
 number of electron     180.0000000 magnetization      30.0000000
 augmentation part      180.0000000 magnetization      30.0000000

 Free energy of the ion-electron system (eV)
  ---------------------------------------------------
  alpha Z        PSCENC =       899.04847540
  Ewald energy   TEWEN  =    -10421.23681545
  -1/2 Hartree   DENC   =     -3706.02751757
  -exchange  EXHF       =         0.00000000
  -V(xc)+E(xc)   XCENC  =       634.52505980
  PAW double counting   =     11294.18101673   -11197.39956708
  entropy T*S    EENTRO =        -0.00000000
  eigenvalues    EBANDS =     -1851.20337001
  atomic energy  EATOM  =     14068.13175480
  ---------------------------------------------------
  free energy    TOTEN  =      -279.98096338 eV

  energy without entropy =     -279.98096338  energy(sigma->0) =     -279.98096338


--------------------------------------------------------------------------------------------------------




----------------------------------------- Iteration    1(  10)  ---------------------------------------


     EDDAV:  cpu time   30.28: real time   30.32
       DOS:  cpu time    0.00: real time    0.00
    CHARGE:  cpu time    2.23: real time    2.23
    MIXING:  cpu time    0.01: real time    0.01
    --------------------------------------------
      LOOP:  cpu time   32.52: real time   32.56

 eigenvalue-minimisations  :  1832
 total energy-change (2. order) :-0.5631591E-06  (-0.5617893E-06)
 number of electron     180.0000236 magnetization      22.0750568
 augmentation part       35.4627028 magnetization      22.2721570

 Broyden mixing:
  rms(total) = 0.10419E+02    rms(broyden)= 0.10418E+02
  rms(prec ) = 0.10796E+02
  weight for this iteration     100.00

 Free energy of the ion-electron system (eV)
  ---------------------------------------------------
  alpha Z        PSCENC =       899.04847540
  Ewald energy   TEWEN  =    -10421.23681545
  -1/2 Hartree   DENC   =     -3706.02751757
  -exchange  EXHF       =         0.00000000
  -V(xc)+E(xc)   XCENC  =       634.52505980
  PAW double counting   =     11294.18101673   -11197.39956708
  entropy T*S    EENTRO =        -0.00000000
  eigenvalues    EBANDS =     -1851.20337057
  atomic energy  EATOM  =     14068.13175480
  ---------------------------------------------------
  free energy    TOTEN  =      -279.98096394 eV

  energy without entropy =     -279.98096394  energy(sigma->0) =     -279.98096394


--------------------------------------------------------------------------------------------------------




----------------------------------------- Iteration    1(  11)  ---------------------------------------


    POTLOK:  cpu time    0.56: real time    0.56
    SETDIJ:  cpu time    0.23: real time    0.23
    EDDIAG:  cpu time    6.87: real time    6.87
  RMM-DIIS:  cpu time   35.25: real time   35.29
    ORTHCH:  cpu time    0.94: real time    0.94
       DOS:  cpu time    0.00: real time    0.00
    CHARGE:  cpu time    2.46: real time    2.46
    MIXING:  cpu time    0.01: real time    0.01
    --------------------------------------------
      LOOP:  cpu time   46.32: real time   46.37

 eigenvalue-minimisations  :  3366
 total energy-change (2. order) : 0.7577962E+02  (-0.2625650E+02)
 number of electron     180.0000147 magnetization      15.0809735
 augmentation part       35.0905242 magnetization      14.1658261

 Broyden mixing:
  rms(total) = 0.34599E+01    rms(broyden)= 0.34582E+01
  rms(prec ) = 0.34876E+01
  weight for this iteration     100.00

 eigenvalues of (default mixing * dielectric matrix)
  average eigenvalue GAMMA=   1.1909
  1.1909

 Free energy of the ion-electron system (eV)
  ---------------------------------------------------
  alpha Z        PSCENC =       899.04847540
  Ewald energy   TEWEN  =    -10421.23681545
  -1/2 Hartree   DENC   =     -3866.69600790
  -exchange  EXHF       =         0.00000000
  -V(xc)+E(xc)   XCENC  =       663.70283170
  PAW double counting   =     15425.29488011   -15351.20554589
  entropy T*S    EENTRO =        -0.00000000
  eigenvalues    EBANDS =     -1621.24091836
  atomic energy  EATOM  =     14068.13175480
  ---------------------------------------------------
  free energy    TOTEN  =      -204.20134559 eV

  energy without entropy =     -204.20134559  energy(sigma->0) =     -204.20134559


--------------------------------------------------------------------------------------------------------




----------------------------------------- Iteration    1(  12)  ---------------------------------------


    POTLOK:  cpu time    0.56: real time    0.56
    SETDIJ:  cpu time    0.23: real time    0.23
    EDDIAG:  cpu time    6.87: real time    6.87
  RMM-DIIS:  cpu time   31.72: real time   31.75
    ORTHCH:  cpu time    0.94: real time    0.93
       DOS:  cpu time    0.00: real time    0.00
    CHARGE:  cpu time    2.28: real time    2.29
    MIXING:  cpu time    0.01: real time    0.01
    --------------------------------------------
      LOOP:  cpu time   42.60: real time   42.65

 eigenvalue-minimisations  :  2999
 total energy-change (2. order) :-0.8938324E+01  (-0.1291815E+01)
 number of electron     180.0000149 magnetization       7.7405662
 augmentation part       35.0583377 magnetization       6.9695787

 Broyden mixing:
  rms(total) = 0.21117E+01    rms(broyden)= 0.21116E+01
  rms(prec ) = 0.21223E+01
  weight for this iteration     100.00

 eigenvalues of (default mixing * dielectric matrix)
  average eigenvalue GAMMA=   1.1318
  0.7494  1.5142

 Free energy of the ion-electron system (eV)
  ---------------------------------------------------
  alpha Z        PSCENC =       899.04847540
  Ewald energy   TEWEN  =    -10421.23681545
  -1/2 Hartree   DENC   =     -3832.58528607
  -exchange  EXHF       =         0.00000000
  -V(xc)+E(xc)   XCENC  =       655.47274183
  PAW double counting   =     18291.30980418   -18223.19443447
  entropy T*S    EENTRO =        -0.00000000
  eigenvalues    EBANDS =     -1650.08590972
  atomic energy  EATOM  =     14068.13175480
  ---------------------------------------------------
  free energy    TOTEN  =      -213.13966949 eV

  energy without entropy =     -213.13966949  energy(sigma->0) =     -213.13966949


--------------------------------------------------------------------------------------------------------




----------------------------------------- Iteration    1(  13)  ---------------------------------------


    POTLOK:  cpu time    0.56: real time    0.56
    SETDIJ:  cpu time    0.23: real time    0.23
    EDDIAG:  cpu time    6.85: real time    6.85
  RMM-DIIS:  cpu time   29.25: real time   29.28
    ORTHCH:  cpu time    0.94: real time    0.94
       DOS:  cpu time    0.00: real time    0.00
    CHARGE:  cpu time    2.30: real time    2.30
    MIXING:  cpu time    0.01: real time    0.01
    --------------------------------------------
      LOOP:  cpu time   40.13: real time   40.17

 eigenvalue-minimisations  :  2738
 total energy-change (2. order) :-0.1910384E+02  (-0.2215842E+01)
 number of electron     180.0000147 magnetization       4.3170571
 augmentation part       35.0626772 magnetization       3.8707573

 Broyden mixing:
  rms(total) = 0.94739E+00    rms(broyden)= 0.94720E+00
  rms(prec ) = 0.95004E+00
  weight for this iteration     100.00

 eigenvalues of (default mixing * dielectric matrix)
  average eigenvalue GAMMA=   1.3412
  2.4431  0.9774  0.6032

 Free energy of the ion-electron system (eV)
  ---------------------------------------------------
  alpha Z        PSCENC =       899.04847540
  Ewald energy   TEWEN  =    -10421.23681545
  -1/2 Hartree   DENC   =     -3814.85693980
  -exchange  EXHF       =         0.00000000
  -V(xc)+E(xc)   XCENC  =       646.48061087
  PAW double counting   =     21136.10383808   -21074.11856338
  entropy T*S    EENTRO =        -0.00000000
  eigenvalues    EBANDS =     -1671.79587309
  atomic energy  EATOM  =     14068.13175480
  ---------------------------------------------------
  free energy    TOTEN  =      -232.24351257 eV

  energy without entropy =     -232.24351257  energy(sigma->0) =     -232.24351257


--------------------------------------------------------------------------------------------------------




----------------------------------------- Iteration    1(  14)  ---------------------------------------


    POTLOK:  cpu time    0.56: real time    0.56
    SETDIJ:  cpu time    0.23: real time    0.23
    EDDIAG:  cpu time    6.86: real time    6.87
  RMM-DIIS:  cpu time   29.14: real time   29.18
    ORTHCH:  cpu time    0.94: real time    0.94
       DOS:  cpu time    0.00: real time    0.00
    CHARGE:  cpu time    2.28: real time    2.29
    MIXING:  cpu time    0.02: real time    0.01
    --------------------------------------------
      LOOP:  cpu time   40.04: real time   40.08

 eigenvalue-minimisations  :  2746
 total energy-change (2. order) :-0.3291625E+01  (-0.5838668E+00)
 number of electron     180.0000147 magnetization       2.7183293
 augmentation part       35.0729734 magnetization       2.4390868

 Broyden mixing:
  rms(total) = 0.31521E+00    rms(broyden)= 0.31507E+00
  rms(prec ) = 0.31958E+00
  weight for this iteration     100.00

 eigenvalues of (default mixing * dielectric matrix)
  average eigenvalue GAMMA=   1.3418
  2.6415  1.0119  1.0119  0.7020

 Free energy of the ion-electron system (eV)
  ---------------------------------------------------
  alpha Z        PSCENC =       899.04847540
  Ewald energy   TEWEN  =    -10421.23681545
  -1/2 Hartree   DENC   =     -3803.43955557
  -exchange  EXHF       =         0.00000000
  -V(xc)+E(xc)   XCENC  =       644.21248554
  PAW double counting   =     22137.07697060   -22077.11272940
  entropy T*S    EENTRO =        -0.00000000
  eigenvalues    EBANDS =     -1682.21572359
  atomic energy  EATOM  =     14068.13175480
  ---------------------------------------------------
  free energy    TOTEN  =      -235.53513768 eV

  energy without entropy =     -235.53513768  energy(sigma->0) =     -235.53513768


--------------------------------------------------------------------------------------------------------




----------------------------------------- Iteration    1(  15)  ---------------------------------------


    POTLOK:  cpu time    0.56: real time    0.56
    SETDIJ:  cpu time    0.23: real time    0.23
    EDDIAG:  cpu time    6.86: real time    6.87
  RMM-DIIS:  cpu time   30.96: real time   31.00
    ORTHCH:  cpu time    0.93: real time    0.93
       DOS:  cpu time    0.00: real time    0.00
    CHARGE:  cpu time    2.32: real time    2.32
    MIXING:  cpu time    0.01: real time    0.01
    --------------------------------------------
      LOOP:  cpu time   41.88: real time   41.93

 eigenvalue-minimisations  :  2915
 total energy-change (2. order) :-0.1019236E+01  (-0.3430173E+00)
 number of electron     180.0000144 magnetization       1.6332162
 augmentation part       35.0379200 magnetization       1.4899844

 Broyden mixing:
  rms(total) = 0.23944E+00    rms(broyden)= 0.23929E+00
  rms(prec ) = 0.24725E+00
  weight for this iteration     100.00

 eigenvalues of (default mixing * dielectric matrix)
  average eigenvalue GAMMA=   1.2543
  2.6970  1.4173  0.8496  0.6538  0.6538

 Free energy of the ion-electron system (eV)
  ---------------------------------------------------
  alpha Z        PSCENC =       899.04847540
  Ewald energy   TEWEN  =    -10421.23681545
  -1/2 Hartree   DENC   =     -3800.74170900
  -exchange  EXHF       =         0.00000000
  -V(xc)+E(xc)   XCENC  =       643.79630449
  PAW double counting   =     22147.17931709   -22087.09143340
  entropy T*S    EENTRO =        -0.00000000
  eigenvalues    EBANDS =     -1685.64026741
  atomic energy  EATOM  =     14068.13175480
  ---------------------------------------------------
  free energy    TOTEN  =      -236.55437348 eV

  energy without entropy =     -236.55437348  energy(sigma->0) =     -236.55437348


--------------------------------------------------------------------------------------------------------




----------------------------------------- Iteration    1(  16)  ---------------------------------------


    POTLOK:  cpu time    0.56: real time    0.56
    SETDIJ:  cpu time    0.23: real time    0.23
    EDDIAG:  cpu time    6.80: real time    6.81
  RMM-DIIS:  cpu time   33.07: real time   33.11
    ORTHCH:  cpu time    0.94: real time    0.94
       DOS:  cpu time    0.00: real time    0.00
    CHARGE:  cpu time    2.20: real time    2.20
    MIXING:  cpu time    0.02: real time    0.02
    --------------------------------------------
      LOOP:  cpu time   43.82: real time   43.86

 eigenvalue-minimisations  :  3140
 total energy-change (2. order) :-0.1092900E+00  (-0.5897500E-01)
 number of electron     180.0000146 magnetization       0.1279744
 augmentation part       35.0355083 magnetization       0.0579273

 Broyden mixing:
  rms(total) = 0.13065E+00    rms(broyden)= 0.13056E+00
  rms(prec ) = 0.13276E+00
  weight for this iteration     100.00

 eigenvalues of (default mixing * dielectric matrix)
  average eigenvalue GAMMA=   1.4366
  3.3577  2.2454  0.8777  0.8777  0.6654  0.5958

 Free energy of the ion-electron system (eV)
  ---------------------------------------------------
  alpha Z        PSCENC =       899.04847540
  Ewald energy   TEWEN  =    -10421.23681545
  -1/2 Hartree   DENC   =     -3792.51669962
  -exchange  EXHF       =         0.00000000
  -V(xc)+E(xc)   XCENC  =       643.07439983
  PAW double counting   =     22054.19859571   -21993.71738822
  entropy T*S    EENTRO =        -0.00000000
  eigenvalues    EBANDS =     -1693.64598596
  atomic energy  EATOM  =     14068.13175480
  ---------------------------------------------------
  free energy    TOTEN  =      -236.66366351 eV

  energy without entropy =     -236.66366351  energy(sigma->0) =     -236.66366351


--------------------------------------------------------------------------------------------------------




----------------------------------------- Iteration    1(  17)  ---------------------------------------


    POTLOK:  cpu time    0.56: real time    0.56
    SETDIJ:  cpu time    0.23: real time    0.23
    EDDIAG:  cpu time    6.82: real time    6.82
  RMM-DIIS:  cpu time   32.54: real time   32.57
    ORTHCH:  cpu time    0.94: real time    0.94
       DOS:  cpu time    0.00: real time    0.00
    CHARGE:  cpu time    2.20: real time    2.20
    MIXING:  cpu time    0.02: real time    0.02
    --------------------------------------------
      LOOP:  cpu time   43.30: real time   43.34

 eigenvalue-minimisations  :  3100
 total energy-change (2. order) :-0.6447504E-01  (-0.2978989E-01)
 number of electron     180.0000146 magnetization       0.0893968
 augmentation part       35.0515457 magnetization       0.0831906

 Broyden mixing:
  rms(total) = 0.62242E-01    rms(broyden)= 0.62089E-01
  rms(prec ) = 0.65855E-01
  weight for this iteration     100.00

 eigenvalues of (default mixing * dielectric matrix)
  average eigenvalue GAMMA=   1.3908
  3.5155  2.2993  1.1925  0.7688  0.7688  0.5953  0.5953

 Free energy of the ion-electron system (eV)
  ---------------------------------------------------
  alpha Z        PSCENC =       899.04847540
  Ewald energy   TEWEN  =    -10421.23681545
  -1/2 Hartree   DENC   =     -3784.83457040
  -exchange  EXHF       =         0.00000000
  -V(xc)+E(xc)   XCENC  =       642.61513271
  PAW double counting   =     22081.02912864   -22020.35730095
  entropy T*S    EENTRO =        -0.00000000
  eigenvalues    EBANDS =     -1701.12394331
  atomic energy  EATOM  =     14068.13175480
  ---------------------------------------------------
  free energy    TOTEN  =      -236.72813856 eV

  energy without entropy =     -236.72813856  energy(sigma->0) =     -236.72813856


--------------------------------------------------------------------------------------------------------




----------------------------------------- Iteration    1(  18)  ---------------------------------------


    POTLOK:  cpu time    0.56: real time    0.56
    SETDIJ:  cpu time    0.23: real time    0.23
    EDDIAG:  cpu time    6.82: real time    6.82
  RMM-DIIS:  cpu time   32.40: real time   32.44
    ORTHCH:  cpu time    0.93: real time    0.93
       DOS:  cpu time    0.00: real time    0.00
    CHARGE:  cpu time    2.20: real time    2.20
    MIXING:  cpu time    0.02: real time    0.02
    --------------------------------------------
      LOOP:  cpu time   43.16: real time   43.20

 eigenvalue-minimisations  :  3071
 total energy-change (2. order) : 0.1564720E-02  (-0.2008492E-02)
 number of electron     180.0000146 magnetization       0.0576604
 augmentation part       35.0513442 magnetization       0.0536293

 Broyden mixing:
  rms(total) = 0.29023E-01    rms(broyden)= 0.28994E-01
  rms(prec ) = 0.29731E-01
  weight for this iteration     100.00

 eigenvalues of (default mixing * dielectric matrix)
  average eigenvalue GAMMA=   1.3663
  3.6295  2.5306  1.1085  0.8363  0.8363  0.8300  0.5827  0.5763

 Free energy of the ion-electron system (eV)
  ---------------------------------------------------
  alpha Z        PSCENC =       899.04847540
  Ewald energy   TEWEN  =    -10421.23681545
  -1/2 Hartree   DENC   =     -3786.29249685
  -exchange  EXHF       =         0.00000000
  -V(xc)+E(xc)   XCENC  =       642.73053323
  PAW double counting   =     22064.94723584   -22004.26840324
  entropy T*S    EENTRO =        -0.00000000
  eigenvalues    EBANDS =     -1699.78685757
  atomic energy  EATOM  =     14068.13175480
  ---------------------------------------------------
  free energy    TOTEN  =      -236.72657384 eV

  energy without entropy =     -236.72657384  energy(sigma->0) =     -236.72657384


--------------------------------------------------------------------------------------------------------




----------------------------------------- Iteration    1(  19)  ---------------------------------------


    POTLOK:  cpu time    0.55: real time    0.55
    SETDIJ:  cpu time    0.23: real time    0.23
    EDDIAG:  cpu time    6.80: real time    6.81
  RMM-DIIS:  cpu time   27.33: real time   27.36
    ORTHCH:  cpu time    0.94: real time    0.94
       DOS:  cpu time    0.00: real time    0.00
    CHARGE:  cpu time    2.20: real time    2.20
    MIXING:  cpu time    0.02: real time    0.02
    --------------------------------------------
      LOOP:  cpu time   38.07: real time   38.11

 eigenvalue-minimisations  :  2548
 total energy-change (2. order) :-0.2612398E-03  (-0.2695426E-03)
 number of electron     180.0000146 magnetization       0.0188005
 augmentation part       35.0462736 magnetization       0.0173105

 Broyden mixing:
  rms(total) = 0.10546E-01    rms(broyden)= 0.10490E-01
  rms(prec ) = 0.11088E-01
  weight for this iteration     100.00

 eigenvalues of (default mixing * dielectric matrix)
  average eigenvalue GAMMA=   1.3791
  3.6367  2.6371  1.3174  1.3174  0.8268  0.8268  0.7061  0.5916  0.5523

 Free energy of the ion-electron system (eV)
  ---------------------------------------------------
  alpha Z        PSCENC =       899.04847540
  Ewald energy   TEWEN  =    -10421.23681545
  -1/2 Hartree   DENC   =     -3786.91247911
  -exchange  EXHF       =         0.00000000
  -V(xc)+E(xc)   XCENC  =       642.76053858
  PAW double counting   =     22032.08721786   -21971.32935327
  entropy T*S    EENTRO =        -0.00000000
  eigenvalues    EBANDS =     -1699.27617389
  atomic energy  EATOM  =     14068.13175480
  ---------------------------------------------------
  free energy    TOTEN  =      -236.72683508 eV

  energy without entropy =     -236.72683508  energy(sigma->0) =     -236.72683508


--------------------------------------------------------------------------------------------------------




----------------------------------------- Iteration    1(  20)  ---------------------------------------


    POTLOK:  cpu time    0.56: real time    0.56
    SETDIJ:  cpu time    0.23: real time    0.23
    EDDIAG:  cpu time    6.82: real time    6.82
  RMM-DIIS:  cpu time   23.84: real time   23.87
    ORTHCH:  cpu time    0.93: real time    0.93
       DOS:  cpu time    0.00: real time    0.00
    CHARGE:  cpu time    2.20: real time    2.20
    MIXING:  cpu time    0.02: real time    0.02
    --------------------------------------------
      LOOP:  cpu time   34.60: real time   34.64

 eigenvalue-minimisations  :  2192
 total energy-change (2. order) :-0.2883473E-03  (-0.8304419E-04)
 number of electron     180.0000146 magnetization       0.0023800
 augmentation part       35.0431469 magnetization       0.0016589

 Broyden mixing:
  rms(total) = 0.12653E-01    rms(broyden)= 0.12612E-01
  rms(prec ) = 0.13031E-01
  weight for this iteration     100.00

 eigenvalues of (default mixing * dielectric matrix)
  average eigenvalue GAMMA=   1.3701
  3.7707  2.1923  2.1923  1.0725  1.0725  0.7944  0.7944  0.6544  0.6022  0.5551

 Free energy of the ion-electron system (eV)
  ---------------------------------------------------
  alpha Z        PSCENC =       899.04847540
  Ewald energy   TEWEN  =    -10421.23681545
  -1/2 Hartree   DENC   =     -3787.40767724
  -exchange  EXHF       =         0.00000000
  -V(xc)+E(xc)   XCENC  =       642.77510996
  PAW double counting   =     22026.85014020   -21966.07859787
  entropy T*S    EENTRO =        -0.00000000
  eigenvalues    EBANDS =     -1698.80951323
  atomic energy  EATOM  =     14068.13175480
  ---------------------------------------------------
  free energy    TOTEN  =      -236.72712342 eV

  energy without entropy =     -236.72712342  energy(sigma->0) =     -236.72712342


--------------------------------------------------------------------------------------------------------




----------------------------------------- Iteration    1(  21)  ---------------------------------------


    POTLOK:  cpu time    0.56: real time    0.56
    SETDIJ:  cpu time    0.23: real time    0.23
    EDDIAG:  cpu time    6.84: real time    6.85
  RMM-DIIS:  cpu time   19.14: real time   19.17
    ORTHCH:  cpu time    0.94: real time    0.94
       DOS:  cpu time    0.00: real time    0.00
    --------------------------------------------
      LOOP:  cpu time   27.71: real time   27.74

 eigenvalue-minimisations  :  1687
 total energy-change (2. order) :-0.7594444E-06  (-0.2347975E-04)
 number of electron     180.0000146 magnetization       0.0023800
 augmentation part       35.0431469 magnetization       0.0016589

 Free energy of the ion-electron system (eV)
  ---------------------------------------------------
  alpha Z        PSCENC =       899.04847540
  Ewald energy   TEWEN  =    -10421.23681545
  -1/2 Hartree   DENC   =     -3787.51133611
  -exchange  EXHF       =         0.00000000
  -V(xc)+E(xc)   XCENC  =       642.78668606
  PAW double counting   =     22042.92891584   -21982.20097638
  entropy T*S    EENTRO =        -0.00000000
  eigenvalues    EBANDS =     -1698.67382835
  atomic energy  EATOM  =     14068.13175480
  ---------------------------------------------------
  free energy    TOTEN  =      -236.72712418 eV

  energy without entropy =     -236.72712418  energy(sigma->0) =     -236.72712418


--------------------------------------------------------------------------------------------------------




 average (electrostatic) potential at core
  the test charge radii are     0.9748  1.2125  0.7215
  (the norm of the test charge is              1.0000)
       1 -25.9745       2 -25.9743       3 -25.9745       4 -25.9742       5 -25.9745
       6 -25.9742       7 -39.2405       8 -39.2405       9 -39.2405      10 -39.2405
[...]
     62      -0.5105      1.00000
     63      -0.4021      1.00000
     64       0.0179      1.00000
     65       0.0179      1.00000
     66       0.1814      1.00000
     67       0.3112      1.00000
     68       0.3112      1.00000
     69       0.4058      1.00000
     70       0.5417      1.00000
     71       0.5417      1.00000
     72       0.6432      1.00000
     73       0.6433      1.00000
     74       0.7219      1.00000
     75       0.8265      1.00000
     76       0.8265      1.00000
     77       0.9189      1.00000
     78       1.0296      1.00000
     79       1.0474      1.00000
     80       1.0474      1.00000
     81       1.1940      1.00000
     82       1.2563      1.00000
     83       1.2563      1.00000
     84       1.3129      1.00000
     85       1.4264      0.99889
     86       1.4264      0.99889
     87       1.4583      0.99700
     88       1.4815      0.99540
     89       1.4815      0.99539
     90       1.6376      0.97596
     91       5.3025      0.00000
     92       5.3229      0.00000
     93       5.3230      0.00000
     94       5.4813      0.00000
     95       5.6848      0.00000
     96       5.6848      0.00000
     97       5.8500      0.00000
     98       6.1903      0.00000
     99       6.1904      0.00000
    100       6.1968      0.00000
    101       6.3361      0.00000
    102       6.3362      0.00000
    103       6.6118      0.00000
    104       6.6628      0.00000
    105       6.6628      0.00000
    106       6.8363      0.00000
    107       6.8363      0.00000
    108       6.9333      0.00000
    109       9.1719      0.00000
    110       9.3915      0.00000
    111       9.3915      0.00000
    112       9.8159      0.00000
    113       9.8160      0.00000
    114       9.8818      0.00000
    115      10.1150      0.00000
    116      10.1150      0.00000
    117      10.5356      0.00000
    118      11.1593      0.00000
    119      11.1593      0.00000
    120      11.2097      0.00000
    121      11.2433      0.00000
    122      11.9698      0.00000
    123      11.9698      0.00000

 k-point   5 :       0.4000    0.2000    0.0000
  band No.  band energies     occupation 
      1     -28.9443      1.00000
      2     -28.9340      1.00000
      3     -28.9312      1.00000
      4     -28.9312      1.00000
      5     -28.9001      1.00000
      6     -28.9001      1.00000
      7     -28.8958      1.00000
      8     -28.8429      1.00000
      9     -28.8429      1.00000
     10     -28.8340      1.00000
     11     -28.8340      1.00000
     12     -28.7806      1.00000
     13     -28.7547      1.00000
     14     -28.7547      1.00000
     15     -28.7229      1.00000
     16     -28.7229      1.00000
     17     -28.7156      1.00000
     18     -28.7128      1.00000
     19     -14.8751      1.00000
     20     -14.7839      1.00000
     21     -14.7839      1.00000
     22     -14.6937      1.00000
     23     -14.5747      1.00000
     24     -14.5746      1.00000
     25     -14.5026      1.00000
     26     -14.3070      1.00000
     27     -14.3070      1.00000
     28     -14.1745      1.00000
     29     -14.1745      1.00000
     30     -14.0352      1.00000
     31     -14.0352      1.00000
     32     -13.8988      1.00000
     33     -13.8419      1.00000
     34     -13.8203      1.00000
     35     -13.8072      1.00000
     36     -13.8072      1.00000
     37      -2.9245      1.00000
     38      -2.8390      1.00000
     39      -2.7922      1.00000
     40      -2.7919      1.00000
     41      -2.5674      1.00000
     42      -2.5673      1.00000
     43      -2.5311      1.00000
     44      -2.2876      1.00000
     45      -2.2876      1.00000
     46      -2.0800      1.00000
     47      -2.0101      1.00000
     48      -2.0100      1.00000
     49      -1.8289      1.00000
     50      -1.8288      1.00000
     51      -1.6513      1.00000
     52      -1.2409      1.00000
     53      -1.2408      1.00000
     54      -1.2067      1.00000
     55      -1.0712      1.00000
     56      -1.0711      1.00000
     57      -0.8664      1.00000
     58      -0.8664      1.00000
     59      -0.8506      1.00000
     60      -0.5906      1.00000
     61      -0.5905      1.00000
     62      -0.5625      1.00000
     63      -0.1532      1.00000
     64      -0.1532      1.00000
     65      -0.1520      1.00000
     66      -0.0832      1.00000
     67       0.2607      1.00000
     68       0.2610      1.00000
     69       0.3428      1.00000
     70       0.4888      1.00000
     71       0.5545      1.00000
     72       0.5789      1.00000
     73       0.5790      1.00000
     74       0.7334      1.00000
     75       0.7337      1.00000
     76       0.9174      1.00000
     77       0.9896      1.00000
     78       0.9898      1.00000
     79       1.0357      1.00000
     80       1.1376      1.00000
     81       1.1377      1.00000
     82       1.1888      1.00000
     83       1.3289      0.99999
     84       1.3290      0.99999
     85       1.3365      0.99999
     86       1.4779      0.99559
     87       1.4781      0.99558
     88       1.5246      0.99988
     89       1.5798      1.04202
     90       1.5799      1.04211
     91       5.1361      0.00000
     92       5.2092      0.00000
     93       5.2092      0.00000
     94       5.5132      0.00000
     95       5.5132      0.00000
     96       5.5801      0.00000
     97       6.1224      0.00000
     98       6.1225      0.00000
     99       6.1838      0.00000
    100       6.2306      0.00000
    101       6.4017      0.00000
    102       6.4018      0.00000
    103       6.5338      0.00000
    104       6.5338      0.00000
    105       6.7401      0.00000
    106       6.7775      0.00000
    107       6.7776      0.00000
    108       6.8654      0.00000
    109       9.3640      0.00000
    110       9.3641      0.00000
    111       9.3949      0.00000
    112       9.5928      0.00000
    113       9.8753      0.00000
    114       9.8754      0.00000
    115      10.2453      0.00000
    116      10.6165      0.00000
    117      10.6165      0.00000
    118      10.9261      0.00000
    119      10.9263      0.00000
    120      11.3204      0.00000
    121      12.2534      0.00000
    122      12.2537      0.00000
    123      12.5879      0.00000


--------------------------------------------------------------------------------------------------------


 soft charge-density along one line, spin component           1
         0         1         2         3         4         5         6         7         8         9
 total charge-density along one line
 
 soft charge-density along one line, spin component           2
         0         1         2         3         4         5         6         7         8         9
 total charge-density along one line
 
 pseudopotential strength for first ion, spin component:           1
  1.183   5.268  -0.000  -0.003   0.000
  5.268  22.440  -0.000  -0.012   0.000
 -0.000  -0.000  -0.299   0.000  -0.000
 -0.003  -0.012   0.000  -0.300   0.000
  0.000   0.000  -0.000   0.000  -0.299
 pseudopotential strength for first ion, spin component:           2
  1.183   5.268  -0.000  -0.003   0.000
  5.268  22.440  -0.000  -0.012   0.000
 -0.000  -0.000  -0.299   0.000  -0.000
 -0.003  -0.012   0.000  -0.300   0.000
  0.000   0.000  -0.000   0.000  -0.299
 total augmentation occupancy for first ion, spin component:           1
  1.029  -0.029   0.000   0.039   0.000
 -0.029   0.001   0.000  -0.001   0.000
  0.000  -0.000   0.109   0.000   0.000
  0.039  -0.001  -0.000   0.084  -0.000
  0.000  -0.000   0.000   0.000   0.109
 total augmentation occupancy for first ion, spin component:           2
  0.000  -0.000   0.000  -0.000   0.000
 -0.000   0.000   0.000   0.000   0.000
  0.000  -0.000   0.000   0.000  -0.000
 -0.000   0.000  -0.000   0.000   0.000
  0.000   0.000   0.000   0.000   0.000


------------------------ aborting loop because EDIFF is reached ----------------------------------------


    CHARGE:  cpu time    2.24: real time    2.24
    FORLOC:  cpu time    0.09: real time    0.09
    FORNL :  cpu time   25.00: real time   25.02
    STRESS:  cpu time   21.04: real time   21.06
    FORCOR:  cpu time    0.65: real time    0.65
    FORHAR:  cpu time    0.13: real time    0.13
    MIXING:  cpu time    0.01: real time    0.01

  FORCE on cell =-STRESS in cart. coord.  units (eV):
  Direction    XX          YY          ZZ          XY          YZ          ZX
  --------------------------------------------------------------------------------------
  Alpha Z   983.40951   983.40951   983.40951
  Ewald   -3566.04467 -3566.04467 -3787.96993    -0.00000     0.00000    -0.00000
  Hartree  1163.86945  1163.86950  1151.03117    -0.00000     0.00000    -0.00000
  E(xc)    -842.82047  -842.81893  -843.19879    -0.00004     0.00005     0.00037
  Local    -462.59770  -462.57007  -238.97277    -0.00004    -0.00000    -0.00052
  n-local  -620.53852  -619.59764  -624.78523     0.42442    -0.29467     0.31437
  augment   286.59020   286.58715   287.18281    -0.00003    -0.00001     0.00037
  Kinetic  3057.80675  3057.37986  3073.50002    -0.56276     0.79245    -0.79720
  Fock        0.00000     0.00000     0.00000     0.00000     0.00000     0.00000
  -------------------------------------------------------------------------------------
  Total      -0.05536    -0.05536     0.19679     0.00000    -0.00000    -0.00000
  in kB      -0.29067    -0.29067     1.03319     0.00000    -0.00000    -0.00000
  external pressure =        0.15 kB  Pullay stress =        0.00 kB


 VOLUME and BASIS-vectors are now :
 -----------------------------------------------------------------------------
  energy-cutoff  :      350.00
  volume of cell :      305.17
      direct lattice vectors                 reciprocal lattice vectors
     2.530922237 -4.383685905  0.000000000     0.197556445 -0.114059267 -0.000000000
     2.530922237  4.383685905 -0.000000000     0.197556445  0.114059267  0.000000000
     0.000000000 -0.000000000 13.752712327     0.000000000  0.000000000  0.072712929

  length of vectors
     5.061844474  5.061844474 13.752712327     0.228118534  0.228118534  0.072712929


 FORCES acting on ions
    electron-ion (+dipol)            ewald-force                    non-local-force                 convergence-correction
 -----------------------------------------------------------------------------------------------
   0.830E-04 -.389E-05 -.618E+01   -.169E-14 -.323E-11 0.664E+01   -.130E-17 0.347E-17 -.456E+00   0.344E-07 -.323E-07 -.680E-04
   0.137E-03 0.157E-04 -.618E+01   0.230E-14 -.392E-12 0.664E+01   0.432E-18 0.347E-17 -.456E+00   -.352E-07 -.318E-07 -.680E-04
   0.816E-04 -.432E-05 -.618E+01   0.161E-13 0.463E-11 0.664E+01   0.217E-17 0.434E-17 -.456E+00   0.341E-07 -.323E-07 -.675E-04
   0.133E-03 0.161E-04 -.618E+01   -.444E-15 -.323E-11 0.664E+01   -.436E-18 0.434E-17 -.456E+00   -.353E-07 -.318E-07 -.680E-04
   0.787E-04 -.462E-05 -.618E+01   0.355E-14 -.389E-12 0.664E+01   0.260E-17 0.521E-17 -.456E+00   0.342E-07 -.323E-07 -.680E-04
   0.136E-03 0.164E-04 -.618E+01   -.191E-13 0.463E-11 0.664E+01   0.217E-17 0.521E-17 -.456E+00   -.350E-07 -.318E-07 -.675E-04
   -.231E-04 -.559E-05 -.152E+01   0.134E-12 -.320E-10 0.284E+01   0.191E-16 -.692E-17 -.132E+01   0.290E-05 0.275E-06 0.312E-02
   -.321E-04 0.814E-05 -.152E+01   -.177E-12 0.402E-10 0.284E+01   0.139E-16 -.346E-17 -.132E+01   -.289E-05 0.275E-06 0.311E-02
   -.228E-04 -.558E-05 -.152E+01   0.853E-13 0.402E-10 0.284E+01   0.191E-16 -.346E-17 -.132E+01   0.290E-05 0.276E-06 0.311E-02
   -.324E-04 0.827E-05 -.152E+01   -.196E-12 0.280E-11 0.284E+01   -.104E-16 0.144E-19 -.132E+01   -.290E-05 0.274E-06 0.312E-02
   -.242E-04 -.558E-05 -.152E+01   0.168E-12 0.277E-11 0.284E+01   0.156E-16 0.348E-17 -.132E+01   0.291E-05 0.276E-06 0.312E-02
   -.328E-04 0.824E-05 -.152E+01   -.256E-12 -.320E-10 0.284E+01   0.208E-16 -.104E-16 -.132E+01   -.290E-05 0.274E-06 0.312E-02
   -.163E+02 0.105E+03 0.221E+01   0.155E+02 -.116E+03 -.316E+01   0.835E+00 0.109E+02 0.964E+00   -.108E-01 0.109E-01 -.103E-01
   -.831E+02 -.668E+02 0.221E+01   0.930E+02 0.716E+02 -.316E+01   -.985E+01 -.472E+01 0.964E+00   -.403E-02 -.148E-01 -.103E-01
   0.994E+02 -.386E+02 0.221E+01   -.108E+03 0.447E+02 -.316E+01   0.901E+01 -.617E+01 0.964E+00   0.148E-01 0.392E-02 -.103E-01
   0.831E+02 -.668E+02 0.221E+01   -.930E+02 0.716E+02 -.316E+01   0.985E+01 -.472E+01 0.964E+00   0.403E-02 -.148E-01 -.103E-01
   0.163E+02 0.105E+03 0.221E+01   -.155E+02 -.116E+03 -.316E+01   -.835E+00 0.109E+02 0.964E+00   0.108E-01 0.109E-01 -.103E-01
   -.994E+02 -.386E+02 0.221E+01   0.108E+03 0.447E+02 -.316E+01   -.901E+01 -.617E+01 0.964E+00   -.148E-01 0.392E-02 -.103E-01
   -.163E+02 0.105E+03 0.221E+01   0.155E+02 -.116E+03 -.316E+01   0.835E+00 0.109E+02 0.964E+00   -.108E-01 0.109E-01 -.103E-01
   -.831E+02 -.668E+02 0.221E+01   0.930E+02 0.716E+02 -.316E+01   -.985E+01 -.472E+01 0.964E+00   -.403E-02 -.148E-01 -.103E-01
   0.994E+02 -.386E+02 0.221E+01   -.108E+03 0.447E+02 -.316E+01   0.901E+01 -.617E+01 0.964E+00   0.148E-01 0.392E-02 -.103E-01
   0.831E+02 -.668E+02 0.221E+01   -.930E+02 0.716E+02 -.316E+01   0.985E+01 -.472E+01 0.964E+00   0.403E-02 -.148E-01 -.103E-01
   0.163E+02 0.105E+03 0.221E+01   -.155E+02 -.116E+03 -.316E+01   -.835E+00 0.109E+02 0.964E+00   0.108E-01 0.109E-01 -.103E-01
   -.994E+02 -.386E+02 0.221E+01   0.108E+03 0.447E+02 -.316E+01   -.901E+01 -.617E+01 0.964E+00   -.148E-01 0.392E-02 -.103E-01
   -.163E+02 0.105E+03 0.221E+01   0.155E+02 -.116E+03 -.316E+01   0.835E+00 0.109E+02 0.964E+00   -.108E-01 0.109E-01 -.103E-01
   -.831E+02 -.668E+02 0.221E+01   0.930E+02 0.716E+02 -.316E+01   -.985E+01 -.472E+01 0.964E+00   -.403E-02 -.148E-01 -.103E-01
   0.994E+02 -.386E+02 0.221E+01   -.108E+03 0.447E+02 -.316E+01   0.901E+01 -.617E+01 0.964E+00   0.148E-01 0.392E-02 -.103E-01
   0.831E+02 -.668E+02 0.221E+01   -.930E+02 0.716E+02 -.316E+01   0.985E+01 -.472E+01 0.964E+00   0.403E-02 -.148E-01 -.103E-01
   0.163E+02 0.105E+03 0.221E+01   -.155E+02 -.116E+03 -.316E+01   -.835E+00 0.109E+02 0.964E+00   0.108E-01 0.109E-01 -.103E-01
   -.994E+02 -.386E+02 0.221E+01   0.108E+03 0.447E+02 -.316E+01   -.901E+01 -.617E+01 0.964E+00   -.148E-01 0.392E-02 -.103E-01
 -----------------------------------------------------------------------------------------------
   0.726E-04 0.425E-02 -.647E+01   -.568E-13 -.121E-12 -.419E-12   0.160E-13 -.222E-13 0.667E+01   -.381E-08 0.377E-05 -.167E+00
 
 
 POSITION                                       TOTAL-FORCE (eV/Angst)
 -----------------------------------------------------------------------------------
      2.53092     -1.46123      0.67437         0.000000     -0.000000      0.001864
      0.00000      0.00000      2.96649         0.000000     -0.000000      0.001864
      2.53092      1.46123      5.25861         0.000000     -0.000000      0.001864
      2.53092     -1.46123      7.55073         0.000000     -0.000000      0.001864
      0.00000     -0.00000      9.84284         0.000000     -0.000000      0.001864
      2.53092      1.46123     12.13496         0.000000     -0.000000      0.001864
      2.53092     -1.46123      4.58150         0.000000     -0.000000     -0.002695
      2.53092      1.46123      2.28938         0.000000     -0.000000     -0.002695
      2.53092      1.46123      9.16574         0.000000     -0.000000     -0.002695
      0.00000     -0.00000      6.87362         0.000000     -0.000000     -0.002695
      0.00000      0.00000     -0.00274         0.000000     -0.000000     -0.002695
      2.53092     -1.46123     11.45786         0.000000     -0.000000     -0.002695
      4.09773      1.53767      3.71734         0.002475     -0.000990      0.000277
      1.68132      2.77990      3.71734        -0.000380      0.002638      0.000277
      1.81372      0.06611      3.71734        -0.002094     -0.001648      0.000277
      0.84961      1.31867      1.42523         0.000380      0.002638      0.000277
      3.49504      0.07644      1.42523        -0.002475     -0.000990      0.000277
      3.24813      2.98857      1.42523         0.002094     -0.001648      0.000277
      1.56681      0.07644      8.30158         0.002475     -0.000990      0.000277
      4.21224      1.31867      8.30158        -0.000380      0.002638      0.000277
      1.81372      2.98857      8.30158        -0.002094     -0.001648      0.000277
      3.38053     -0.14255      6.00946         0.000380      0.002638      0.000277
      0.96411     -1.38479      6.00946        -0.002475     -0.000990      0.000277
      3.24813     -2.85635      6.00946         0.002094     -0.001648      0.000277
      4.09773     -1.38479     12.88582         0.002475     -0.000990      0.000277
      1.68132     -0.14255     12.88582        -0.000380      0.002638      0.000277
      1.81372     -2.85635     12.88582        -0.002094     -0.001648      0.000277
      3.38053      2.77990     10.59370         0.000380      0.002638      0.000277
      0.96411      1.53767     10.59370        -0.002475     -0.000990      0.000277
      3.24813      0.06611     10.59370         0.002094     -0.001648      0.000277
 -----------------------------------------------------------------------------------
    total drift:                                0.000073      0.004250      0.038100


--------------------------------------------------------------------------------------------------------



  FREE ENERGIE OF THE ION-ELECTRON SYSTEM (eV)
  ---------------------------------------------------
  free  energy   TOTEN  =      -238.26553911 eV

  energy  without entropy=     -238.27393789  energy(sigma->0) =     -238.26763880
 
 d Force = 0.1281566E-03[ 0.335E-04, 0.223E-03]  d Energy = 0.1175631E-03 0.106E-04
 d Force = 0.1392281E+01[ 0.139E+01, 0.139E+01]  d Ewald  = 0.8052830E+00 0.587E+00


--------------------------------------------------------------------------------------------------------


    POTLOK:  cpu time    0.78: real time    0.78


--------------------------------------------------------------------------------------------------------


 Conjugate gradient step on ions:
 trial-energy change:   -0.000118  1 .order   -0.000134   -0.000246   -0.000023
  (g-gl).g = 0.357E-03      g.g   = 0.391E-03  gl.gl    = 0.404E-03
 g(Force)  = 0.169E-03   g(Stress)= 0.222E-03 ortho     =-0.295E-04
 gamma     =   0.88422
 trial     =   0.67257
 opt step  =   0.74188  (harmonic =   0.74188) maximal distance =0.00083759
 next E    =  -238.265557   (d E  =  -0.00014)


--------------------------------------------------------------------------------------------------------


  
 reached required accuracy - stopping structural energy minimisation
     LOOP+:  cpu time  194.29: real time  194.49
    4ORBIT:  cpu time    0.00: real time    0.00

 total amount of memory used by VASP on root node   190988. kBytes
========================================================================

   base      :      30000. kBytes
   nonl-proj :      13178. kBytes
   fftplans  :      11124. kBytes
   grid      :      31961. kBytes
   one-center:        933. kBytes
   wavefun   :     103792. kBytes
 
  
  
 General timing and accounting informations for this job:
 ========================================================
  
                  Total CPU time used (sec):     8027.876
                            User time (sec):     8026.012
                          System time (sec):        1.864
                         Elapsed time (sec):     8036.342
  
                   Maximum memory used (kb):      417372.
                   Average memory used (kb):           0.
  
                          Minor page faults:       723668
                          Major page faults:            0
                 Voluntary context switches:            7
