<?xml version="1.0" encoding="ISO-8859-1"?>
<modeling>
 <generator>
  <i name="program" type="string">vasp </i>
  <i name="version" type="string">5.3.3  </i>
  <i name="subversion" type="string">18Dez12 (build Sep  7 2015 22:32:56) complex                          parallel </i>
  <i name="platform" type="string">LinuxIFC </i>
  <i name="date" type="string">2022 12 22 </i>
  <i name="time" type="string">17:58:43 </i>
 </generator>
 <incar>
  <i type="string" name="SYSTEM"> Crystal</i>
  <i type="int" name="ISTART">     0</i>
  <i type="string" name="PREC">normal</i>
  <i type="string" name="ALGO"> fast</i>
  <i type="int" name="NSIM">     4</i>
  <i type="int" name="ISPIN">     2</i>
  <i type="int" name="ICHARG">     2</i>
  <i type="int" name="NELMDL">   -10</i>
  <i type="int" name="NELMIN">     4</i>
  <i type="int" name="IBRION">     2</i>
  <i name="EDIFF">      0.00010000</i>
  <i name="EDIFFG">     -0.01000000</i>
  <i type="int" name="NSW">   300</i>
  <i type="int" name="ISIF">     3</i>
  <i name="ENCUT">    350.00000000</i>
  <i type="logical" name="LREAL"> F  </i>
  <i type="int" name="ISMEAR">     2</i>
  <i name="SIGMA">      0.10000000</i>
  <i type="logical" name="LWAVE"> F  </i>
  <i type="logical" name="LCHARG"> F  </i>
 </incar>
 <kpoints>
  <generation param="Gamma">
   <v type="int" name="divisions">       5        5        1 </v>
   <v name="usershift">      0.00000000       0.00000000       0.00000000 </v>
   <v name="genvec1">      0.20000000       0.00000000       0.00000000 </v>
   <v name="genvec2">      0.00000000       0.20000000       0.00000000 </v>
   <v name="genvec3">      0.00000000       0.00000000       1.00000000 </v>
   <v name="shift">      0.00000000       0.00000000       0.00000000 </v>
  </generation>
  <varray name="kpointlist" >
   <v>       0.00000000       0.00000000       0.00000000 </v>
   <v>       0.20000000      -0.00000000       0.00000000 </v>
   <v>       0.40000000      -0.00000000       0.00000000 </v>
   <v>       0.20000000       0.20000000       0.00000000 </v>
   <v>       0.40000000       0.20000000       0.00000000 </v>
  </varray>
  <varray name="weights" >
   <v>       0.04000000 </v>
   <v>       0.24000000 </v>
   <v>       0.24000000 </v>
   <v>       0.24000000 </v>
   <v>       0.24000000 </v>
  </varray>
 </kpoints>
 <parameters>
  <separator name="general" >
   <i type="string" name="SYSTEM">Crystal</i>
   <i type="logical" name="LCOMPAT"> F  </i>
  </separator>
  <separator name="electronic" >
   <i type="string" name="PREC">normal</i>
   <i name="ENMAX">    350.00000000</i>
   <i name="ENAUG">    605.39200000</i>
   <i name="EDIFF">      0.00010000</i>
   <i type="int" name="IALGO">    68</i>
   <i type="int" name="IWAVPR">    11</i>
   <i type="int" name="NBANDS">   123</i>
   <i name="NELECT">    180.00000000</i>
   <i type="int" name="TURBO">     0</i>
   <i type="int" name="IRESTART">     0</i>
   <i type="int" name="NREBOOT">     0</i>
   <i type="int" name="NMIN">     0</i>
   <i name="EREF">      0.00000000</i>
   <separator name="electronic smearing" >
    <i type="int" name="ISMEAR">     2</i>
    <i name="SIGMA">      0.10000000</i>
    <i name="KSPACING">      0.50000000</i>
    <i type="logical" name="KGAMMA"> T  </i>
   </separator>
   <separator name="electronic projectors" >
    <i type="logical" name="LREAL"> F  </i>
    <v name="ROPT">      0.00000000      0.00000000      0.00000000</v>
    <i type="int" name="LMAXPAW">  -100</i>
    <i type="int" name="LMAXMIX">     2</i>
    <i type="logical" name="NLSPLINE"> F  </i>
   </separator>
   <separator name="electronic startup" >
    <i type="int" name="ISTART">     0</i>
    <i type="int" name="ICHARG">     2</i>
    <i type="int" name="INIWAV">     1</i>
   </separator>
   <separator name="electronic spin" >
    <i type="int" name="ISPIN">     2</i>
    <i type="logical" name="LNONCOLLINEAR"> F  </i>
    <v name="MAGMOM">      1.00000000      1.00000000      1.00000000      1.00000000      1.00000000      1.00000000      1.00000000      1.00000000      1.00000000      1.00000000      1.00000000      1.00000000      1.00000000      1.00000000      1.00000000      1.00000000      1.00000000      1.00000000      1.00000000      1.00000000
      1.00000000      1.00000000      1.00000000      1.00000000      1.00000000      1.00000000      1.00000000      1.00000000      1.00000000      1.00000000</v>
    <i name="NUPDOWN">     -1.00000000</i>
    <i type="logical" name="LSORBIT"> F  </i>
    <v name="SAXIS">      0.00000000      0.00000000      1.00000000</v>
    <i type="logical" name="LSPIRAL"> F  </i>
    <v name="QSPIRAL">      0.00000000      0.00000000      0.00000000</v>
    <i type="logical" name="LZEROZ"> F  </i>
   </separator>
   <separator name="electronic exchange-correlation" >
    <i type="logical" name="LASPH"> F  </i>
    <i type="logical" name="LMETAGGA"> F  </i>
   </separator>
   <separator name="electronic convergence" >
    <i type="int" name="NELM">    60</i>
    <i type="int" name="NELMDL">   -10</i>
    <i type="int" name="NELMIN">     4</i>
    <i name="ENINI">    350.00000000</i>
    <separator name="electronic convergence detail" >
     <i type="logical" name="LDIAG"> T  </i>
     <i type="logical" name="LSUBROT"> T  </i>
     <i name="WEIMIN">      0.00100000</i>
     <i name="EBREAK">      0.00000020</i>
     <i name="DEPER">      0.30000000</i>
     <i type="int" name="NRMM">     4</i>
     <i name="TIME">      0.40000000</i>
    </separator>
   </separator>
   <separator name="electronic mixer" >
    <i name="AMIX">      0.40000000</i>
    <i name="BMIX">      1.00000000</i>
    <i name="AMIN">      0.10000000</i>
    <i name="AMIX_MAG">      1.60000000</i>
    <i name="BMIX_MAG">      1.00000000</i>
    <separator name="electronic mixer details" >
     <i type="int" name="IMIX">     4</i>
     <i type="int" name="MAXMIX">   -45</i>
     <i name="WC">    100.00000000</i>
     <i type="int" name="INIMIX">     1</i>
     <i type="int" name="MIXPRE">     1</i>
     <i type="int" name="MREMOVE">     5</i>
    </separator>
   </separator>
   <separator name="electronic dipolcorrection" >
    <i type="logical" name="LDIPOL"> F  </i>
    <i type="logical" name="LMONO"> F  </i>
    <i type="int" name="IDIPOL">     0</i>
    <i name="EPSILON">      1.00000000</i>
    <v name="DIPOL">   -100.00000000   -100.00000000   -100.00000000</v>
    <i name="EFIELD">      0.00000000</i>
   </separator>
  </separator>
  <separator name="grids" >
   <i type="int" name="NGX">    24</i>
   <i type="int" name="NGY">    24</i>
   <i type="int" name="NGZ">    70</i>
   <i type="int" name="NGXF">    48</i>
   <i type="int" name="NGYF">    48</i>
   <i type="int" name="NGZF">   140</i>
   <i type="logical" name="ADDGRID"> F  </i>
  </separator>
  <separator name="ionic" >
   <i type="int" name="NSW">   300</i>
   <i type="int" name="IBRION">     2</i>
   <i type="int" name="ISIF">     3</i>
   <i name="PSTRESS">      0.00000000</i>
   <i name="EDIFFG">     -0.01000000</i>
   <i type="int" name="NFREE">     1</i>
   <i name="POTIM">      0.50000000</i>
   <i name="SMASS">     -3.00000000</i>
   <i name="SCALEE">      1.00000000</i>
  </separator>
  <separator name="ionic md" >
   <i name="TEBEG">      0.00010000</i>
   <i name="TEEND">      0.00010000</i>
   <i type="int" name="NBLOCK">     1</i>
   <i type="int" name="KBLOCK">   300</i>
   <i type="int" name="NPACO">   256</i>
   <i name="APACO">     16.00000000</i>
  </separator>
  <separator name="symmetry" >
   <i type="int" name="ISYM">     2</i>
   <i name="SYMPREC">      0.00001000</i>
  </separator>
  <separator name="dos" >
   <i type="logical" name="LORBIT"> F  </i>
   <v name="RWIGS">     -1.00000000     -1.00000000     -1.00000000</v>
   <i type="int" name="NEDOS">   301</i>
   <i name="EMIN">     10.00000000</i>
   <i name="EMAX">    -10.00000000</i>
   <i name="EFERMI">      0.00000000</i>
  </separator>
  <separator name="writing" >
   <i type="int" name="NWRITE">     2</i>
   <i type="logical" name="LWAVE"> F  </i>
   <i type="logical" name="LCHARG"> F  </i>
   <i type="logical" name="LPARD"> F  </i>
   <i type="logical" name="LVTOT"> F  </i>
   <i type="logical" name="LVHAR"> F  </i>
   <i type="logical" name="LELF"> F  </i>
   <i type="logical" name="LOPTICS"> F  </i>
   <v name="STM">      0.00000000      0.00000000      0.00000000      0.00000000      0.00000000      0.00000000      0.00000000</v>
  </separator>
  <separator name="performance" >
   <i type="int" name="NPAR">     1</i>
   <i type="int" name="NSIM">     4</i>
   <i type="int" name="NBLK">    -1</i>
   <i type="logical" name="LPLANE"> T  </i>
   <i type="logical" name="LSCALAPACK"> F  </i>
   <i type="logical" name="LSCAAWARE"> F  </i>
   <i type="logical" name="LSCALU"> F  </i>
   <i type="logical" name="LASYNC"> F  </i>
   <i type="logical" name="LORBITALREAL"> F  </i>
  </separator>
  <separator name="miscellaneous" >
   <i type="int" name="IDIOT">     3</i>
   <i type="logical" name="LMUSIC"> F  </i>
   <v name="POMASS">      7.01000000     92.00000000     16.00000000</v>
   <v name="DARWINR">      0.00000000      0.00000000      0.00000000</v>
   <v name="DARWINV">      1.00000000      1.00000000      1.00000000</v>
   <i type="logical" name="LCORR"> T  </i>
  </separator>
  <i type="logical" name="GGA_COMPAT"> T  </i>
  <i type="logical" name="LBERRY"> F  </i>
  <i type="int" name="ICORELEVEL">     0</i>
  <i type="logical" name="LDAU"> F  </i>
  <i type="int" name="I_CONSTRAINED_M">     0</i>
  <separator name="electronic exchange-correlation" >
   <i type="string" name="GGA">--</i>
   <i type="int" name="VOSKOWN">     0</i>
   <i type="logical" name="LHFCALC"> F  </i>
   <i type="string" name="PRECFOCK"></i>
   <i type="logical" name="LSYMGRAD"> F  </i>
   <i type="logical" name="LHFONE"> F  </i>
   <i type="logical" name="LRHFCALC"> F  </i>
   <i type="logical" name="LTHOMAS"> F  </i>
   <i type="logical" name="LMODELHF"> F  </i>
   <i name="ENCUT4O">     -1.00000000</i>
   <i type="int" name="EXXOEP">     0</i>
   <i type="int" name="FOURORBIT">     0</i>
   <i name="AEXX">      0.00000000</i>
   <i name="HFALPHA">      0.00000000</i>
   <i name="MCALPHA">      0.00000000</i>
   <i name="ALDAX">      1.00000000</i>
   <i name="AGGAX">      1.00000000</i>
   <i name="ALDAC">      1.00000000</i>
   <i name="AGGAC">      1.00000000</i>
   <i type="int" name="NKREDX">     1</i>
   <i type="int" name="NKREDY">     1</i>
   <i type="int" name="NKREDZ">     1</i>
   <i type="logical" name="SHIFTRED"> F  </i>
   <i type="logical" name="ODDONLY"> F  </i>
   <i type="logical" name="EVENONLY"> F  </i>
   <i type="int" name="LMAXFOCK">     0</i>
   <i type="int" name="NMAXFOCKAE">     0</i>
   <i type="logical" name="LFOCKAEDFT"> F  </i>
   <i name="HFSCREEN">      0.00000000</i>
   <i name="HFSCREENC">      0.00000000</i>
   <i type="int" name="NBANDSGWLOW">     0</i>
  </separator>
  <separator name="vdW DFT" >
   <i type="logical" name="LUSE_VDW"> F  </i>
   <i name="Zab_VDW">     -0.84910000</i>
   <i name="PARAM1">      0.12340000</i>
   <i name="PARAM2">      1.00000000</i>
   <i name="PARAM3">      0.00000000</i>
  </separator>
  <separator name="model GW" >
   <i type="int" name="MODEL_GW">     0</i>
   <i name="MODEL_EPS0">      6.67602379</i>
   <i name="MODEL_ALPHA">      1.00000000</i>
  </separator>
  <separator name="linear response parameters" >
   <i type="logical" name="LEPSILON"> F  </i>
   <i type="logical" name="LRPA"> F  </i>
   <i type="logical" name="LNABLA"> F  </i>
   <i type="logical" name="LVEL"> F  </i>
   <i type="int" name="KINTER">     0</i>
   <i name="CSHIFT">      0.10000000</i>
   <i name="OMEGAMAX">     -1.00000000</i>
   <i name="DEG_THRESHOLD">      0.00200000</i>
  </separator>
  <separator name="orbital magnetization" >
   <i type="logical" name="NUCIND"> F  </i>
   <v name="MAGPOS">      0.00000000      0.00000000      0.00000000</v>
   <i type="logical" name="LNICSALL"> T  </i>
   <i type="logical" name="ORBITALMAG"> F  </i>
   <i type="logical" name="LMAGBLOCH"> F  </i>
   <i type="logical" name="LCHIMAG"> F  </i>
   <i type="logical" name="LGAUGE"> T  </i>
   <i type="int" name="MAGATOM">     0</i>
   <v name="MAGDIPOL">      0.00000000      0.00000000      0.00000000</v>
   <v name="AVECCONST">      0.00000000      0.00000000      0.00000000</v>
  </separator>
  <separator name="response functions" >
   <i type="logical" name="LADDER"> F  </i>
   <i type="logical" name="LFXC"> F  </i>
   <i type="logical" name="LHARTREE"> T  </i>
   <i type="int" name="IBSE">     0</i>
   <i type="logical" name="LTCTE"> F  </i>
   <i type="logical" name="LTETE"> F  </i>
   <i type="logical" name="LTRIPLET"> F  </i>
   <i type="logical" name="LFXCEPS"> F  </i>
   <i type="logical" name="L2ORDER"> F  </i>
   <i type="logical" name="LUSEW"> F  </i>
   <i name="ENCUTGW">     -2.00000000</i>
   <i name="ENCUTGWSOFT">     -2.00000000</i>
   <i name="ENCUTLF">     -1.00000000</i>
   <i type="int" name="LMAXMP2">    -1</i>
   <i name="SCISSOR">      0.00000000</i>
   <i type="int" name="NOMEGA">     0</i>
   <i type="int" name="NOMEGAR">     0</i>
   <i type="int" name="NBANDSGW">    -1</i>
   <i type="int" name="NBANDSO">    -1</i>
   <i type="int" name="NBANDSV">    -1</i>
   <i type="int" name="NELM">     1</i>
   <i type="int" name="DIM">     3</i>
   <i type="int" name="ANTIRES">     0</i>
   <i name="OMEGAMAX">    -30.00000000</i>
   <i name="OMEGATL">   -200.00000000</i>
   <i type="int" name="OMEGAGRID">     0</i>
   <i name="CSHIFT">     -0.10000000</i>
   <i type="logical" name="SELFENERGY"> F  </i>
   <i type="logical" name="LSPECTRAL"> F  </i>
   <i type="logical" name="ODDONLYGW"> F  </i>
   <i type="logical" name="EVENONLYGW"> F  </i>
   <i type="int" name="NKREDLFX">     1</i>
   <i type="int" name="NKREDLFY">     1</i>
   <i type="int" name="NKREDLFZ">     1</i>
   <i type="int" name="MAXMEM">  1800</i>
   <i type="int" name="TELESCOPE">     0</i>
  </separator>
 </parameters>
 <atominfo>
  <atoms>      30 </atoms>
  <types>       3 </types>
  <array name="atoms" >
   <dimension dim="1">ion</dimension>
   <field type="string">element</field>
   <field type="int">atomtype</field>
   <set>
    <rc><c>Li</c><c>   1</c></rc>
    <rc><c>Li</c><c>   1</c></rc>
    <rc><c>Li</c><c>   1</c></rc>
    <rc><c>Li</c><c>   1</c></rc>
    <rc><c>Li</c><c>   1</c></rc>
    <rc><c>Li</c><c>   1</c></rc>
    <rc><c>Nb</c><c>   2</c></rc>
    <rc><c>Nb</c><c>   2</c></rc>
    <rc><c>Nb</c><c>   2</c></rc>
    <rc><c>Nb</c><c>   2</c></rc>
    <rc><c>Nb</c><c>   2</c></rc>
    <rc><c>Nb</c><c>   2</c></rc>
    <rc><c>O </c><c>   3</c></rc>
    <rc><c>O </c><c>   3</c></rc>
    <rc><c>O </c><c>   3</c></rc>
    <rc><c>O </c><c>   3</c></rc>
    <rc><c>O </c><c>   3</c></rc>
    <rc><c>O </c><c>   3</c></rc>
    <rc><c>O </c><c>   3</c></rc>
    <rc><c>O </c><c>   3</c></rc>
    <rc><c>O </c><c>   3</c></rc>
    <rc><c>O </c><c>   3</c></rc>
    <rc><c>O </c><c>   3</c></rc>
    <rc><c>O </c><c>   3</c></rc>
    <rc><c>O </c><c>   3</c></rc>
    <rc><c>O </c><c>   3</c></rc>
    <rc><c>O </c><c>   3</c></rc>
    <rc><c>O </c><c>   3</c></rc>
    <rc><c>O </c><c>   3</c></rc>
    <rc><c>O </c><c>   3</c></rc>
   </set>
  </array>
  <array name="atomtypes" >
   <dimension dim="1">type</dimension>
   <field type="int">atomspertype</field>
   <field type="string">element</field>
   <field>mass</field>
   <field>valence</field>
   <field type="string">pseudopotential</field>
   <set>
    <rc><c>   6</c><c>Li</c><c>      7.01000000</c><c>      1.00000000</c><c>  PAW_PBE Li 17Jan2003                  </c></rc>
    <rc><c>   6</c><c>Nb</c><c>     92.00000000</c><c>     11.00000000</c><c>  PAW_PBE Nb_pv 08Apr2002               </c></rc>
    <rc><c>  18</c><c>O </c><c>     16.00000000</c><c>      6.00000000</c><c>  PAW_PBE O 08Apr2002                   </c></rc>
   </set>
  </array>
 </atominfo>
 <structure name="initialpos" >
  <crystal>
   <varray name="basis" >
    <v>       2.61149501      -4.52324203       0.00000000 </v>
    <v>       2.61149501       4.52324203       0.00000000 </v>
    <v>       0.00000000       0.00000000      14.12924181 </v>
   </varray>
   <i name="volume">    333.80118964 </i>
   <varray name="rec_basis" >
    <v>       0.19146121      -0.11054018       0.00000000 </v>
    <v>       0.19146121       0.11054018       0.00000000 </v>
    <v>       0.00000000       0.00000000       0.07077521 </v>
   </varray>
  </crystal>
  <varray name="positions" >
   <v>       0.66666667       0.33333333       0.05050133 </v>
   <v>       0.00000000       0.00000000       0.21716800 </v>
   <v>       0.33333333       0.66666667       0.38383467 </v>
   <v>       0.66666667       0.33333333       0.55050133 </v>
   <v>       0.00000000       0.00000000       0.71716800 </v>
   <v>       0.33333333       0.66666667       0.88383467 </v>
   <v>       0.66666667       0.33333333       0.33256433 </v>
   <v>       0.33333333       0.66666667       0.16589767 </v>
   <v>       0.33333333       0.66666667       0.66589767 </v>
   <v>       0.00000000       0.00000000       0.49923100 </v>
   <v>       0.00000000       0.00000000       0.99923100 </v>
   <v>       0.66666667       0.33333333       0.83256433 </v>
   <v>       0.62036767       0.99005133       0.27000033 </v>
   <v>       0.00994867       0.63031633       0.27000033 </v>
   <v>       0.36968367       0.37963233       0.27000033 </v>
   <v>       0.03635033       0.32338467       0.10333367 </v>
   <v>       0.67661533       0.71296567       0.10333367 </v>
   <v>       0.28703433       0.96364967       0.10333367 </v>
   <v>       0.28703433       0.32338467       0.60333367 </v>
   <v>       0.67661533       0.96364967       0.60333367 </v>
   <v>       0.03635033       0.71296567       0.60333367 </v>
   <v>       0.70301700       0.65671800       0.43666700 </v>
   <v>       0.34328200       0.04629900       0.43666700 </v>
   <v>       0.95370100       0.29698300       0.43666700 </v>
   <v>       0.95370100       0.65671800       0.93666700 </v>
   <v>       0.34328200       0.29698300       0.93666700 </v>
   <v>       0.70301700       0.04629900       0.93666700 </v>
   <v>       0.36968367       0.99005133       0.77000033 </v>
   <v>       0.00994867       0.37963233       0.77000033 </v>
   <v>       0.62036767       0.63031633       0.77000033 </v>
  </varray>
 </structure>
 <calculation>
  <scstep>
   <time name="dav">   38.06   38.12</time>
   <time name="total">   38.87   38.92</time>
   <energy>
    <i name="alphaZ">    899.04847540 </i>
    <i name="ewald"> -10421.23681545 </i>
    <i name="hartreedc">  -3706.02751757 </i>
    <i name="XCdc">    634.52505980 </i>
    <i name="pawpsdc">  11294.18101673 </i>
    <i name="pawaedc"> -11197.39956708 </i>
    <i name="eentropy">      0.00002391 </i>
    <i name="bandstr">    221.06329661 </i>
    <i name="atom">  14068.13175480 </i>
    <i name="e_fr_energy">   1792.28572715 </i>
    <i name="e_wo_entrp">   1792.28570324 </i>
    <i name="e_0_energy">   1792.28572117 </i>
   </energy>
  </scstep>
  <scstep>
   <time name="dav">   39.66   39.70</time>
   <time name="total">   39.67   39.71</time>
   <energy>
    <i name="e_fr_energy">      8.53120938 </i>
    <i name="e_wo_entrp">      8.52772540 </i>
    <i name="e_0_energy">      8.53033839 </i>
   </energy>
  </scstep>
  <scstep>
   <time name="dav">   52.47   52.53</time>
   <time name="total">   52.47   52.53</time>
   <energy>
    <i name="e_fr_energy">   -268.68852656 </i>
    <i name="e_wo_entrp">   -268.68852656 </i>
    <i name="e_0_energy">   -268.68852656 </i>
   </energy>
  </scstep>
  <scstep>
   <time name="dav">   50.46   50.52</time>
   <time name="total">   50.46   50.52</time>
   <energy>
    <i name="e_fr_energy">   -279.71366875 </i>
    <i name="e_wo_entrp">   -279.71366875 </i>
    <i name="e_0_energy">   -279.71366875 </i>
   </energy>
  </scstep>
  <scstep>
   <time name="dav">   53.62   53.68</time>
   <time name="total">   53.62   53.68</time>
   <energy>
    <i name="e_fr_energy">   -279.97570178 </i>
    <i name="e_wo_entrp">   -279.97570178 </i>
    <i name="e_0_energy">   -279.97570178 </i>
   </energy>
  </scstep>
  <scstep>
   <time name="dav">   51.54   51.60</time>
   <time name="total">   51.54   51.60</time>
   <energy>
    <i name="e_fr_energy">   -279.98080012 </i>
    <i name="e_wo_entrp">   -279.98080012 </i>
    <i name="e_0_energy">   -279.98080012 </i>
   </energy>
  </scstep>
  <scstep>
   <time name="dav">   48.70   48.76</time>
   <time name="total">   48.70   48.76</time>
   <energy>
    <i name="e_fr_energy">   -279.98095610 </i>
    <i name="e_wo_entrp">   -279.98095610 </i>
    <i name="e_0_energy">   -279.98095610 </i>
   </energy>
  </scstep>
  <scstep>
   <time name="dav">   35.05   35.09</time>
   <time name="total">   35.05   35.09</time>
   <energy>
    <i name="e_fr_energy">   -279.98096209 </i>
    <i name="e_wo_entrp">   -279.98096209 </i>
    <i name="e_0_energy">   -279.98096209 </i>
   </energy>
  </scstep>
  <scstep>
   <time name="dav">   32.43   32.47</time>
   <time name="total">   32.44   32.47</time>
   <energy>
    <i name="e_fr_energy">   -279.98096338 </i>
    <i name="e_wo_entrp">   -279.98096338 </i>
    <i name="e_0_energy">   -279.98096338 </i>
   </energy>
  </scstep>
  <scstep>
   <time name="dav">   30.28   30.32</time>
   <time name="total">   32.52   32.56</time>
   <energy>
    <i name="e_fr_energy">   -279.98096394 </i>
    <i name="e_wo_entrp">   -279.98096394 </i>
    <i name="e_0_energy">   -279.98096394 </i>
   </energy>
  </scstep>
  <scstep>
   <time name="diag">    6.87    6.87</time>
   <time name="diis">   35.25   35.29</time>
   <time name="orth">    0.94    0.94</time>
   <time name="total">   46.32   46.37</time>
   <energy>
    <i name="e_fr_energy">   -204.20134559 </i>
    <i name="e_wo_entrp">   -204.20134559 </i>
    <i name="e_0_energy">   -204.20134559 </i>
   </energy>
  </scstep>
  <scstep>
   <time name="diag">    6.87    6.87</time>
   <time name="diis">   31.72   31.75</time>
   <time name="orth">    0.94    0.93</time>
   <time name="total">   42.60   42.65</time>
   <energy>
    <i name="e_fr_energy">   -213.13966949 </i>
    <i name="e_wo_entrp">   -213.13966949 </i>
    <i name="e_0_energy">   -213.13966949 </i>
   </energy>
  </scstep>
  <scstep>
   <time name="diag">    6.85    6.85</time>
   <time name="diis">   29.25   29.28</time>
   <time name="orth">    0.94    0.94</time>
   <time name="total">   40.13   40.17</time>
   <energy>
    <i name="e_fr_energy">   -232.24351257 </i>
    <i name="e_wo_entrp">   -232.24351257 </i>
    <i name="e_0_energy">   -232.24351257 </i>
   </energy>
  </scstep>
  <scstep>
   <time name="diag">    6.86    6.87</time>
   <time name="diis">   29.14   29.18</time>
   <time name="orth">    0.94    0.94</time>
   <time name="total">   40.04   40.08</time>
   <energy>
    <i name="e_fr_energy">   -235.53513768 </i>
    <i name="e_wo_entrp">   -235.53513768 </i>
    <i name="e_0_energy">   -235.53513768 </i>
   </energy>
  </scstep>
  <scstep>
   <time name="diag">    6.86    6.87</time>
   <time name="diis">   30.96   31.00</time>
   <time name="orth">    0.93    0.93</time>
   <time name="total">   41.88   41.93</time>
   <energy>
    <i name="e_fr_energy">   -236.55437348 </i>
    <i name="e_wo_entrp">   -236.55437348 </i>
    <i name="e_0_energy">   -236.55437348 </i>
   </energy>
  </scstep>
  <scstep>
   <time name="diag">    6.80    6.81</time>
   <time name="diis">   33.07   33.11</time>
   <time name="orth">    0.94    0.94</time>
   <time name="total">   43.82   43.86</time>
   <energy>
    <i name="e_fr_energy">   -236.66366351 </i>
    <i name="e_wo_entrp">   -236.66366351 </i>
    <i name="e_0_energy">   -236.66366351 </i>
   </energy>
  </scstep>
  <scstep>
   <time name="diag">    6.82    6.82</time>
   <time name="diis">   32.54   32.57</time>
   <time name="orth">    0.94    0.94</time>
   <time name="total">   43.30   43.34</time>
   <energy>
    <i name="e_fr_energy">   -236.72813856 </i>
    <i name="e_wo_entrp">   -236.72813856 </i>
    <i name="e_0_energy">   -236.72813856 </i>
   </energy>
  </scstep>
  <scstep>
   <time name="diag">    6.82    6.82</time>
   <time name="diis">   32.40   32.44</time>
   <time name="orth">    0.93    0.93</time>
   <time name="total">   43.16   43.20</time>
   <energy>
    <i name="e_fr_energy">   -236.72657384 </i>
    <i name="e_wo_entrp">   -236.72657384 </i>
    <i name="e_0_energy">   -236.72657384 </i>
   </energy>
  </scstep>
  <scstep>
   <time name="diag">    6.80    6.81</time>
   <time name="diis">   27.33   27.36</time>
   <time name="orth">    0.94    0.94</time>
   <time name="total">   38.07   38.11</time>
   <energy>
    <i name="e_fr_energy">   -236.72683508 </i>
    <i name="e_wo_entrp">   -236.72683508 </i>
    <i name="e_0_energy">   -236.72683508 </i>
   </energy>
  </scstep>
  <scstep>
   <time name="diag">    6.82    6.82</time>
   <time name="diis">   23.84   23.87</time>
   <time name="orth">    0.93    0.93</time>
   <time name="total">   34.60   34.64</time>
   <energy>
    <i name="e_fr_energy">   -236.72712342 </i>
    <i name="e_wo_entrp">   -236.72712342 </i>
    <i name="e_0_energy">   -236.72712342 </i>
   </energy>
  </scstep>
  <scstep>
   <time name="diag">    6.84    6.85</time>
   <time name="diis">   19.14   19.17</time>
   <time name="orth">    0.94    0.94</time>
   <time name="total">   27.71   27.74</time>
   <energy>
    <i name="alphaZ">    899.04847540 </i>
    <i name="ewald"> -10421.23681545 </i>
    <i name="hartreedc">  -3787.51133611 </i>
    <i name="XCdc">    642.78668606 </i>
    <i name="pawpsdc">  22042.92891584 </i>
    <i name="pawaedc"> -21982.20097638 </i>
    <i name="eentropy">     -0.00000000 </i>
    <i name="bandstr">  -1698.67382835 </i>
    <i name="atom">  14068.13175480 </i>
    <i name="e_fr_energy">   -236.72712418 </i>
    <i name="e_wo_entrp">   -236.72712418 </i>
    <i name="e_0_energy">   -236.72712418 </i>
   </energy>
  </scstep>
  <structure>
   <crystal>
    <varray name="basis" >
     <v>       2.61149501      -4.52324203       0.00000000 </v>
     <v>       2.61149501       4.52324203       0.00000000 </v>
     <v>       0.00000000       0.00000000      14.12924181 </v>
    </varray>
    <i name="volume">    333.80118964 </i>
    <varray name="rec_basis" >
     <v>       0.19146121      -0.11054018       0.00000000 </v>
     <v>       0.19146121       0.11054018       0.00000000 </v>
     <v>       0.00000000       0.00000000       0.07077521 </v>
    </varray>
   </crystal>
   <varray name="positions" >
    <v>       0.66666667       0.33333333       0.05050133 </v>
    <v>       0.00000000       0.00000000       0.21716800 </v>
    <v>       0.33333333       0.66666667       0.38383467 </v>
    <v>       0.66666667       0.33333333       0.55050133 </v>
    <v>       0.00000000       0.00000000       0.71716800 </v>
    <v>       0.33333333       0.66666667       0.88383467 </v>
    <v>       0.66666667       0.33333333       0.33256433 </v>
    <v>       0.33333333       0.66666667       0.16589767 </v>
    <v>       0.33333333       0.66666667       0.66589767 </v>
    <v>       0.00000000       0.00000000       0.49923100 </v>
    <v>       0.00000000       0.00000000       0.99923100 </v>
    <v>       0.66666667       0.33333333       0.83256433 </v>
    <v>       0.62036767       0.99005133       0.27000033 </v>
    <v>       0.00994867       0.63031633       0.27000033 </v>
    <v>       0.36968367       0.37963233       0.27000033 </v>
    <v>       0.03635033       0.32338467       0.10333367 </v>
    <v>       0.67661533       0.71296567       0.10333367 </v>
    <v>       0.28703433       0.96364967       0.10333367 </v>
    <v>       0.28703433       0.32338467       0.60333367 </v>
    <v>       0.67661533       0.96364967       0.60333367 </v>
    <v>       0.03635033       0.71296567       0.60333367 </v>
    <v>       0.70301700       0.65671800       0.43666700 </v>
    <v>       0.34328200       0.04629900       0.43666700 </v>
    <v>       0.95370100       0.29698300       0.43666700 </v>
    <v>       0.95370100       0.65671800       0.93666700 </v>
    <v>       0.34328200       0.29698300       0.93666700 </v>
    <v>       0.70301700       0.04629900       0.93666700 </v>
    <v>       0.36968367       0.99005133       0.77000033 </v>
    <v>       0.00994867       0.37963233       0.77000033 </v>
    <v>       0.62036767       0.63031633       0.77000033 </v>
   </varray>
  </structure>
  <varray name="forces" >
   <v>       0.00000000      -0.00000000       0.00968016 </v>
   <v>       0.00000000      -0.00000000       0.00968016 </v>
   <v>       0.00000000      -0.00000000       0.00968016 </v>
   <v>       0.00000000      -0.00000000       0.00968016 </v>
   <v>       0.00000000      -0.00000000       0.00968016 </v>
   <v>       0.00000000      -0.00000000       0.00968016 </v>
   <v>       0.00000000      -0.00000000      -0.01491650 </v>
   <v>       0.00000000      -0.00000000      -0.01491650 </v>
   <v>       0.00000000      -0.00000000      -0.01491650 </v>
   <v>       0.00000000      -0.00000000      -0.01491650 </v>
   <v>       0.00000000      -0.00000000      -0.01491650 </v>
   <v>       0.00000000      -0.00000000      -0.01491650 </v>
   <v>       0.03801911       0.00297690       0.00174544 </v>
   <v>      -0.02158763       0.03143707       0.00174544 </v>
   <v>      -0.01643148      -0.03441397       0.00174544 </v>
   <v>       0.02158763       0.03143707       0.00174544 </v>
   <v>      -0.03801911       0.00297690       0.00174544 </v>
   <v>       0.01643148      -0.03441397       0.00174544 </v>
   <v>       0.03801911       0.00297690       0.00174544 </v>
   <v>      -0.02158763       0.03143707       0.00174544 </v>
   <v>      -0.01643148      -0.03441397       0.00174544 </v>
   <v>       0.02158763       0.03143707       0.00174544 </v>
   <v>      -0.03801911       0.00297690       0.00174544 </v>
   <v>       0.01643148      -0.03441397       0.00174544 </v>
   <v>       0.03801911       0.00297690       0.00174544 </v>
   <v>      -0.02158763       0.03143707       0.00174544 </v>
   <v>      -0.01643148      -0.03441397       0.00174544 </v>
   <v>       0.02158763       0.03143707       0.00174544 </v>
   <v>      -0.03801911       0.00297690       0.00174544 </v>
   <v>       0.01643148      -0.03441397       0.00174544 </v>
  </varray>
  <varray name="stress" >
   <v>    -162.62569032      -0.00000000      -0.00000000 </v>
   <v>       0.00000000    -162.62569032       0.00000000 </v>
   <v>      -0.00000000       0.00000000    -160.91641943 </v>
  </varray>
  <energy>
   <i name="e_fr_energy">   -236.72712418 </i>
   <i name="e_wo_entrp">   -236.72712418 </i>
   <i name="e_0_energy">     -0.00000000 </i>
  </energy>
  <time name="totalsc">  930.57  931.60</time>
 </calculation>
 <calculation>
  <scstep>
   <time name="dav">   44.42   44.47</time>
   <time name="total">   47.47   47.52</time>
   <energy>
    <i name="alphaZ">   1062.95477259 </i>
    <i name="ewald"> -11019.17366486 </i>
    <i name="hartreedc">  -4005.00111853 </i>
    <i name="XCdc">    683.58632153 </i>
    <i name="pawpsdc">  22046.35905103 </i>
    <i name="pawaedc"> -21985.63588987 </i>
    <i name="eentropy">      0.02292565 </i>
    <i name="bandstr">  -1105.13609210 </i>
    <i name="atom">  14068.13175480 </i>
    <i name="e_fr_energy">   -253.89193976 </i>
    <i name="e_wo_entrp">   -253.91486541 </i>
    <i name="e_0_energy">   -253.89767117 </i>
   </energy>
  </scstep>
  <scstep>
   <time name="diag">    6.86    6.87</time>
   <time name="diis">   35.96   36.01</time>
   <time name="orth">    0.93    0.93</time>
   <time name="total">   46.81   46.86</time>
   <energy>
    <i name="e_fr_energy">   -238.73202335 </i>
    <i name="e_wo_entrp">   -238.74386307 </i>
    <i name="e_0_energy">   -238.73498328 </i>
   </energy>
  </scstep>
  <scstep>
   <time name="diag">    6.85    6.85</time>
   <time name="diis">   33.03   33.07</time>
   <time name="orth">    0.93    0.93</time>
   <time name="total">   43.85   43.90</time>
   <energy>
    <i name="e_fr_energy">   -234.51340504 </i>
    <i name="e_wo_entrp">   -234.51340504 </i>
    <i name="e_0_energy">   -234.51340504 </i>
   </energy>
  </scstep>
  <scstep>
   <time name="diag">    6.84    6.85</time>
   <time name="diis">   33.63   33.67</time>
   <time name="orth">    0.93    0.93</time>
   <time name="total">   44.46   44.50</time>
   <energy>
    <i name="e_fr_energy">   -233.93315902 </i>
    <i name="e_wo_entrp">   -233.94315109 </i>
    <i name="e_0_energy">   -233.93565704 </i>
   </energy>
  </scstep>
  <scstep>
   <time name="diag">    6.84    6.85</time>
   <time name="diis">   33.42   33.46</time>
   <time name="orth">    0.94    0.94</time>
   <time name="total">   44.24   44.29</time>
   <energy>
    <i name="e_fr_energy">   -233.94768504 </i>
    <i name="e_wo_entrp">   -233.94768504 </i>
    <i name="e_0_energy">   -233.94768504 </i>
   </energy>
  </scstep>
  <scstep>
   <time name="diag">    6.86    6.87</time>
   <time name="diis">   39.19   39.23</time>
   <time name="orth">    0.93    0.93</time>
   <time name="total">   50.04   50.10</time>
   <energy>
    <i name="e_fr_energy">   -233.89284528 </i>
    <i name="e_wo_entrp">   -233.90324403 </i>
    <i name="e_0_energy">   -233.89544497 </i>
   </energy>
  </scstep>
  <scstep>
   <time name="diag">    6.81    6.81</time>
   <time name="diis">   36.07   36.12</time>
   <time name="orth">    0.94    0.94</time>
   <time name="total">   46.84   46.89</time>
   <energy>
    <i name="e_fr_energy">   -233.89360756 </i>
    <i name="e_wo_entrp">   -233.90403828 </i>
    <i name="e_0_energy">   -233.89621524 </i>
   </energy>
  </scstep>
  <scstep>
   <time name="diag">    6.80    6.80</time>
   <time name="diis">   33.94   33.99</time>
   <time name="orth">    1.20    1.19</time>
   <time name="total">   45.10   45.15</time>
   <energy>
    <i name="e_fr_energy">   -233.89424214 </i>
    <i name="e_wo_entrp">   -233.90461280 </i>
    <i name="e_0_energy">   -233.89683480 </i>
   </energy>
  </scstep>
  <scstep>
   <time name="diag">    6.88    6.89</time>
   <time name="diis">   33.10   33.14</time>
   <time name="orth">    0.93    0.93</time>
   <time name="total">   43.95   44.00</time>
   <energy>
    <i name="e_fr_energy">   -233.89383329 </i>
    <i name="e_wo_entrp">   -233.90422637 </i>
    <i name="e_0_energy">   -233.89643156 </i>
   </energy>
  </scstep>
  <scstep>
   <time name="diag">    6.82    6.83</time>
   <time name="diis">   19.28   19.30</time>
   <time name="orth">    0.94    0.94</time>
   <time name="total">   27.84   27.87</time>
   <energy>
    <i name="alphaZ">   1062.95477259 </i>
    <i name="ewald"> -11019.17366486 </i>
    <i name="hartreedc">  -3555.55533020 </i>
    <i name="XCdc">    656.99155659 </i>
    <i name="pawpsdc">  29304.20753394 </i>
    <i name="pawaedc"> -29255.42960752 </i>
    <i name="eentropy">      0.01039357 </i>
    <i name="bandstr">  -1496.03122070 </i>
    <i name="atom">  14068.13175480 </i>
    <i name="e_fr_energy">   -233.89381181 </i>
    <i name="e_wo_entrp">   -233.90420537 </i>
    <i name="e_0_energy">   -233.89641020 </i>
   </energy>
  </scstep>
  <structure>
   <crystal>
    <varray name="basis" >
     <v>       2.46920789      -4.27679351      -0.00000000 </v>
     <v>       2.46920789       4.27679351      -0.00000000 </v>
     <v>      -0.00000000       0.00000000      13.36750235 </v>
    </varray>
    <i name="volume">    282.32946347 </i>
    <varray name="rec_basis" >
     <v>       0.20249409      -0.11691002       0.00000000 </v>
     <v>       0.20249409       0.11691002       0.00000000 </v>
     <v>       0.00000000       0.00000000       0.07480829 </v>
    </varray>
   </crystal>
   <varray name="positions" >
    <v>       0.66666667       0.33333333       0.05053439 </v>
    <v>       0.00000000       0.00000000       0.21720105 </v>
    <v>       0.33333333       0.66666667       0.38386772 </v>
    <v>       0.66666667       0.33333333       0.55053439 </v>
    <v>       0.00000000       0.00000000       0.71720105 </v>
    <v>       0.33333333       0.66666667       0.88386772 </v>
    <v>       0.66666667       0.33333333       0.33251340 </v>
    <v>       0.33333333       0.66666667       0.16584674 </v>
    <v>       0.33333333       0.66666667       0.66584674 </v>
    <v>       0.00000000       0.00000000       0.49918007 </v>
    <v>       0.00000000       0.00000000       0.99918007 </v>
    <v>       0.66666667       0.33333333       0.83251340 </v>
    <v>       0.62070296       0.99041838       0.27000629 </v>
    <v>       0.00958162       0.63028458       0.27000629 </v>
    <v>       0.36971542       0.37929704       0.27000629 </v>
    <v>       0.03638208       0.32375171       0.10333963 </v>
    <v>       0.67624829       0.71263037       0.10333963 </v>
    <v>       0.28736963       0.96361792       0.10333963 </v>
    <v>       0.28736963       0.32375171       0.60333963 </v>
    <v>       0.67624829       0.96361792       0.60333963 </v>
    <v>       0.03638208       0.71263037       0.60333963 </v>
    <v>       0.70304875       0.65708504       0.43667296 </v>
    <v>       0.34291496       0.04596371       0.43667296 </v>
    <v>       0.95403629       0.29695125       0.43667296 </v>
    <v>       0.95403629       0.65708504       0.93667296 </v>
    <v>       0.34291496       0.29695125       0.93667296 </v>
    <v>       0.70304875       0.04596371       0.93667296 </v>
    <v>       0.36971542       0.99041838       0.77000629 </v>
    <v>       0.00958162       0.37929704       0.77000629 </v>
    <v>       0.62070296       0.63028458       0.77000629 </v>
   </varray>
  </structure>
  <varray name="forces" >
   <v>       0.00000000       0.00000000       0.02391093 </v>
   <v>       0.00000000       0.00000000       0.02391093 </v>
   <v>       0.00000000       0.00000000       0.02391093 </v>
   <v>       0.00000000       0.00000000       0.02391093 </v>
   <v>       0.00000000       0.00000000       0.02391093 </v>
   <v>       0.00000000       0.00000000       0.02391093 </v>
   <v>       0.00000000       0.00000000       2.06924407 </v>
   <v>       0.00000000       0.00000000       2.06924407 </v>
   <v>       0.00000000       0.00000000       2.06924407 </v>
   <v>       0.00000000       0.00000000       2.06924407 </v>
   <v>       0.00000000       0.00000000       2.06924407 </v>
   <v>       0.00000000       0.00000000       2.06924407 </v>
   <v>      -0.85453051      -2.67694543      -0.69771834 </v>
   <v>       2.74556800       0.59842758      -0.69771834 </v>
   <v>      -1.89103749       2.07851785      -0.69771834 </v>
   <v>      -2.74556800       0.59842758      -0.69771834 </v>
   <v>       0.85453051      -2.67694543      -0.69771834 </v>
   <v>       1.89103749       2.07851785      -0.69771834 </v>
   <v>      -0.85453051      -2.67694543      -0.69771834 </v>
   <v>       2.74556800       0.59842758      -0.69771834 </v>
   <v>      -1.89103749       2.07851785      -0.69771834 </v>
   <v>      -2.74556800       0.59842758      -0.69771834 </v>
   <v>       0.85453051      -2.67694543      -0.69771834 </v>
   <v>       1.89103749       2.07851785      -0.69771834 </v>
   <v>      -0.85453051      -2.67694543      -0.69771834 </v>
   <v>       2.74556800       0.59842758      -0.69771834 </v>
   <v>      -1.89103749       2.07851785      -0.69771834 </v>
   <v>      -2.74556800       0.59842758      -0.69771834 </v>
   <v>       0.85453051      -2.67694543      -0.69771834 </v>
   <v>       1.89103749       2.07851785      -0.69771834 </v>
  </varray>
  <varray name="stress" >
   <v>     424.11964366       0.00000000      -0.00000000 </v>
   <v>       0.00000000     424.11964366       0.00000000 </v>
   <v>       0.00000000      -0.00000000     351.24171621 </v>
  </varray>
  <energy>
   <i name="e_fr_energy">   -233.89381181 </i>
   <i name="e_wo_entrp">   -233.89641020 </i>
   <i name="e_0_energy">      0.01039357 </i>
  </energy>
  <time name="totalsc">  494.18  494.72</time>
 </calculation>
 <calculation>
  <scstep>
   <time name="dav">   40.98   41.02</time>
   <time name="total">   43.98   44.03</time>
   <energy>
    <i name="alphaZ">    950.29035477 </i>
    <i name="ewald"> -10615.47696581 </i>
    <i name="hartreedc">  -3425.24655240 </i>
    <i name="XCdc">    630.60158479 </i>
    <i name="pawpsdc">  29302.14061584 </i>
    <i name="pawaedc"> -29253.36268399 </i>
    <i name="eentropy">     -0.00000000 </i>
    <i name="bandstr">  -1904.01194113 </i>
    <i name="atom">  14068.13175480 </i>
    <i name="e_fr_energy">   -246.93383314 </i>
    <i name="e_wo_entrp">   -246.93383314 </i>
    <i name="e_0_energy">   -246.93383314 </i>
   </energy>
  </scstep>
  <scstep>
   <time name="diag">    6.86    6.87</time>
   <time name="diis">   32.58   32.62</time>
   <time name="orth">    0.94    0.94</time>
   <time name="total">   43.42   43.47</time>
   <energy>
    <i name="e_fr_energy">   -239.80247400 </i>
    <i name="e_wo_entrp">   -239.81211858 </i>
    <i name="e_0_energy">   -239.80488515 </i>
   </energy>
  </scstep>
  <scstep>
   <time name="diag">    6.85    6.85</time>
   <time name="diis">   32.90   32.94</time>
   <time name="orth">    0.94    0.94</time>
   <time name="total">   43.73   43.78</time>
   <energy>
    <i name="e_fr_energy">   -239.50536436 </i>
    <i name="e_wo_entrp">   -239.50536436 </i>
    <i name="e_0_energy">   -239.50536436 </i>
   </energy>
  </scstep>
  <scstep>
   <time name="diag">    6.86    6.87</time>
   <time name="diis">   33.06   33.09</time>
   <time name="orth">    0.93    0.93</time>
   <time name="total">   43.89   43.94</time>
   <energy>
    <i name="e_fr_energy">   -237.81481724 </i>
    <i name="e_wo_entrp">   -237.81481724 </i>
    <i name="e_0_energy">   -237.81481724 </i>
   </energy>
  </scstep>
  <scstep>
   <time name="diag">    6.86    6.87</time>
   <time name="diis">   35.94   35.98</time>
   <time name="orth">    0.93    0.93</time>
   <time name="total">   46.77   46.82</time>
   <energy>
    <i name="e_fr_energy">   -237.70976131 </i>
    <i name="e_wo_entrp">   -237.70976131 </i>
    <i name="e_0_energy">   -237.70976131 </i>
   </energy>
  </scstep>
  <scstep>
   <time name="diag">    6.85    6.85</time>
   <time name="diis">   35.25   35.29</time>
   <time name="orth">    0.94    0.94</time>
   <time name="total">   46.08   46.13</time>
   <energy>
    <i name="e_fr_energy">   -237.70648174 </i>
    <i name="e_wo_entrp">   -237.71500011 </i>
    <i name="e_0_energy">   -237.70861133 </i>
   </energy>
  </scstep>
  <scstep>
   <time name="diag">    6.82    6.82</time>
   <time name="diis">   33.02   33.07</time>
   <time name="orth">    0.94    0.94</time>
   <time name="total">   43.80   43.85</time>
   <energy>
    <i name="e_fr_energy">   -237.70625136 </i>
    <i name="e_wo_entrp">   -237.71477319 </i>
    <i name="e_0_energy">   -237.70838181 </i>
   </energy>
  </scstep>
  <scstep>
   <time name="diag">    6.82    6.83</time>
   <time name="diis">   31.92   31.96</time>
   <time name="orth">    0.94    0.94</time>
   <time name="total">   42.68   42.73</time>
   <energy>
    <i name="e_fr_energy">   -237.70647081 </i>
    <i name="e_wo_entrp">   -237.70647081 </i>
    <i name="e_0_energy">   -237.70647081 </i>
   </energy>
  </scstep>
  <scstep>
   <time name="diag">    6.80    6.81</time>
   <time name="diis">   29.10   29.14</time>
   <time name="orth">    0.94    0.94</time>
   <time name="total">   39.85   39.89</time>
   <energy>
    <i name="e_fr_energy">   -237.70564806 </i>
    <i name="e_wo_entrp">   -237.70564806 </i>
    <i name="e_0_energy">   -237.70564806 </i>
   </energy>
  </scstep>
  <scstep>
   <time name="diag">    6.83    6.84</time>
   <time name="diis">   19.96   19.98</time>
   <time name="orth">    0.94    0.94</time>
   <time name="total">   28.52   28.56</time>
   <energy>
    <i name="alphaZ">    950.29035477 </i>
    <i name="ewald"> -10615.47696581 </i>
    <i name="hartreedc">  -3709.53726317 </i>
    <i name="XCdc">    647.25344148 </i>
    <i name="pawpsdc">  24004.47666262 </i>
    <i name="pawaedc"> -23947.44564226 </i>
    <i name="eentropy">     -0.00000000 </i>
    <i name="bandstr">  -1635.39795656 </i>
    <i name="atom">  14068.13175480 </i>
    <i name="e_fr_energy">   -237.70561414 </i>
    <i name="e_wo_entrp">   -237.70561414 </i>
    <i name="e_0_energy">   -237.70561414 </i>
   </energy>
  </scstep>
  <structure>
   <crystal>
    <varray name="basis" >
     <v>       2.56351771      -4.44014292      -0.00000000 </v>
     <v>       2.56351771       4.44014292      -0.00000000 </v>
     <v>      -0.00000000       0.00000000      13.87239355 </v>
    </varray>
    <i name="volume">    315.80184848 </i>
    <varray name="rec_basis" >
     <v>       0.19504449      -0.11260899       0.00000000 </v>
     <v>       0.19504449       0.11260899       0.00000000 </v>
     <v>       0.00000000       0.00000000       0.07208561 </v>
    </varray>
   </crystal>
   <varray name="positions" >
    <v>       0.66666667       0.33333333       0.05051123 </v>
    <v>       0.00000000       0.00000000       0.21717790 </v>
    <v>       0.33333333       0.66666667       0.38384456 </v>
    <v>       0.66666667       0.33333333       0.55051123 </v>
    <v>       0.00000000       0.00000000       0.71717790 </v>
    <v>       0.33333333       0.66666667       0.88384456 </v>
    <v>       0.66666667       0.33333333       0.33254908 </v>
    <v>       0.33333333       0.66666667       0.16588242 </v>
    <v>       0.33333333       0.66666667       0.66588242 </v>
    <v>       0.00000000       0.00000000       0.49921575 </v>
    <v>       0.00000000       0.00000000       0.99921575 </v>
    <v>       0.66666667       0.33333333       0.83254908 </v>
    <v>       0.62046792       0.99016108       0.27000212 </v>
    <v>       0.00983892       0.63030684       0.27000212 </v>
    <v>       0.36969316       0.37953208       0.27000212 </v>
    <v>       0.03635983       0.32349441       0.10333545 </v>
    <v>       0.67650559       0.71286542       0.10333545 </v>
    <v>       0.28713458       0.96364017       0.10333545 </v>
    <v>       0.28713458       0.32349441       0.60333545 </v>
    <v>       0.67650559       0.96364017       0.60333545 </v>
    <v>       0.03635983       0.71286542       0.60333545 </v>
    <v>       0.70302649       0.65682774       0.43666878 </v>
    <v>       0.34317226       0.04619875       0.43666878 </v>
    <v>       0.95380125       0.29697351       0.43666878 </v>
    <v>       0.95380125       0.65682774       0.93666878 </v>
    <v>       0.34317226       0.29697351       0.93666878 </v>
    <v>       0.70302649       0.04619875       0.93666878 </v>
    <v>       0.36969316       0.99016108       0.77000212 </v>
    <v>       0.00983892       0.37953208       0.77000212 </v>
    <v>       0.62046792       0.63030684       0.77000212 </v>
   </varray>
  </structure>
  <varray name="forces" >
   <v>       0.00000000      -0.00000000       0.01646745 </v>
   <v>       0.00000000      -0.00000000       0.01646745 </v>
   <v>       0.00000000      -0.00000000       0.01646745 </v>
   <v>       0.00000000      -0.00000000       0.01646745 </v>
   <v>       0.00000000      -0.00000000       0.01646745 </v>
   <v>       0.00000000      -0.00000000       0.01646745 </v>
   <v>       0.00000000      -0.00000000       0.60097912 </v>
   <v>       0.00000000      -0.00000000       0.60097912 </v>
   <v>       0.00000000      -0.00000000       0.60097912 </v>
   <v>       0.00000000      -0.00000000       0.60097912 </v>
   <v>       0.00000000      -0.00000000       0.60097912 </v>
   <v>       0.00000000      -0.00000000       0.60097912 </v>
   <v>      -0.22000678      -0.74656924      -0.20581552 </v>
   <v>       0.75655131       0.18275316      -0.20581552 </v>
   <v>      -0.53654453       0.56381608      -0.20581552 </v>
   <v>      -0.75655131       0.18275316      -0.20581552 </v>
   <v>       0.22000678      -0.74656924      -0.20581552 </v>
   <v>       0.53654453       0.56381608      -0.20581552 </v>
   <v>      -0.22000678      -0.74656924      -0.20581552 </v>
   <v>       0.75655131       0.18275316      -0.20581552 </v>
   <v>      -0.53654453       0.56381608      -0.20581552 </v>
   <v>      -0.75655131       0.18275316      -0.20581552 </v>
   <v>       0.22000678      -0.74656924      -0.20581552 </v>
   <v>       0.53654453       0.56381608      -0.20581552 </v>
   <v>      -0.22000678      -0.74656924      -0.20581552 </v>
   <v>       0.75655131       0.18275316      -0.20581552 </v>
   <v>      -0.53654453       0.56381608      -0.20581552 </v>
   <v>      -0.75655131       0.18275316      -0.20581552 </v>
   <v>       0.22000678      -0.74656924      -0.20581552 </v>
   <v>       0.53654453       0.56381608      -0.20581552 </v>
  </varray>
  <varray name="stress" >
   <v>       2.23973263       0.00000000       0.00000000 </v>
   <v>       0.00000000       2.23973263       0.00000000 </v>
   <v>       0.00000000       0.00000000     -15.79096801 </v>
  </varray>
  <energy>
   <i name="e_fr_energy">   -237.70561414 </i>
   <i name="e_wo_entrp">   -237.70561414 </i>
   <i name="e_0_energy">     -0.00000000 </i>
  </energy>
  <time name="totalsc">  476.18  476.70</time>
 </calculation>
 <calculation>
  <scstep>
   <time name="dav">   40.46   40.50</time>
   <time name="total">   43.46   43.51</time>
   <energy>
    <i name="alphaZ">    967.51791490 </i>
    <i name="ewald"> -10745.71978098 </i>
    <i name="hartreedc">  -3679.28859278 </i>
    <i name="XCdc">    650.72911129 </i>
    <i name="pawpsdc">  24008.53839176 </i>
    <i name="pawaedc"> -23951.55079283 </i>
    <i name="eentropy">     -0.00000000 </i>
    <i name="bandstr">  -1556.16781929 </i>
    <i name="atom">  14068.13175480 </i>
    <i name="e_fr_energy">   -237.80981312 </i>
    <i name="e_wo_entrp">   -237.80981312 </i>
    <i name="e_0_energy">   -237.80981312 </i>
   </energy>
  </scstep>
  <scstep>
   <time name="diag">    6.84    6.85</time>
   <time name="diis">   31.97   32.00</time>
   <time name="orth">    0.94    0.94</time>
   <time name="total">   42.78   42.83</time>
   <energy>
    <i name="e_fr_energy">   -238.16861690 </i>
    <i name="e_wo_entrp">   -238.16861690 </i>
    <i name="e_0_energy">   -238.16861690 </i>
   </energy>
  </scstep>
  <scstep>
   <time name="diag">    6.85    6.86</time>
   <time name="diis">   32.91   32.95</time>
   <time name="orth">    0.94    0.94</time>
   <time name="total">   43.74   43.79</time>
   <energy>
    <i name="e_fr_energy">   -238.08369009 </i>
    <i name="e_wo_entrp">   -238.08892852 </i>
    <i name="e_0_energy">   -238.08499969 </i>
   </energy>
  </scstep>
  <scstep>
   <time name="diag">    6.86    6.87</time>
   <time name="diis">   36.20   36.24</time>
   <time name="orth">    0.94    0.94</time>
   <time name="total">   47.04   47.09</time>
   <energy>
    <i name="e_fr_energy">   -238.05833884 </i>
    <i name="e_wo_entrp">   -238.06343730 </i>
    <i name="e_0_energy">   -238.05961345 </i>
   </energy>
  </scstep>
  <scstep>
   <time name="diag">    6.86    6.87</time>
   <time name="diis">   34.24   34.28</time>
   <time name="orth">    0.94    0.94</time>
   <time name="total">   45.09   45.14</time>
   <energy>
    <i name="e_fr_energy">   -238.04709350 </i>
    <i name="e_wo_entrp">   -238.05237660 </i>
    <i name="e_0_energy">   -238.04841427 </i>
   </energy>
  </scstep>
  <scstep>
   <time name="diag">    6.86    6.86</time>
   <time name="diis">   32.81   32.85</time>
   <time name="orth">    0.94    0.94</time>
   <time name="total">   43.66   43.70</time>
   <energy>
    <i name="e_fr_energy">   -238.04399218 </i>
    <i name="e_wo_entrp">   -238.04937358 </i>
    <i name="e_0_energy">   -238.04533753 </i>
   </energy>
  </scstep>
  <scstep>
   <time name="diag">    6.82    6.82</time>
   <time name="diis">   26.09   26.12</time>
   <time name="orth">    0.94    0.94</time>
   <time name="total">   36.86   36.90</time>
   <energy>
    <i name="e_fr_energy">   -238.04369743 </i>
    <i name="e_wo_entrp">   -238.04907645 </i>
    <i name="e_0_energy">   -238.04504218 </i>
   </energy>
  </scstep>
  <scstep>
   <time name="diag">    6.81    6.82</time>
   <time name="diis">   27.81   27.84</time>
   <time name="orth">    0.94    0.94</time>
   <time name="total">   38.57   38.61</time>
   <energy>
    <i name="e_fr_energy">   -238.04391828 </i>
    <i name="e_wo_entrp">   -238.04391828 </i>
    <i name="e_0_energy">   -238.04391828 </i>
   </energy>
  </scstep>
  <scstep>
   <time name="diag">    6.82    6.82</time>
   <time name="diis">   21.31   21.34</time>
   <time name="orth">    0.94    0.94</time>
   <time name="total">   32.08   32.11</time>
   <energy>
    <i name="e_fr_energy">   -238.04361320 </i>
    <i name="e_wo_entrp">   -238.04896822 </i>
    <i name="e_0_energy">   -238.04495196 </i>
   </energy>
  </scstep>
  <scstep>
   <time name="diag">    6.82    6.83</time>
   <time name="diis">   18.95   18.97</time>
   <time name="orth">    0.94    0.94</time>
   <time name="total">   27.50   27.53</time>
   <energy>
    <i name="alphaZ">    967.51791490 </i>
    <i name="ewald"> -10745.71978098 </i>
    <i name="hartreedc">  -3617.50216778 </i>
    <i name="XCdc">    647.37394168 </i>
    <i name="pawpsdc">  23372.97489756 </i>
    <i name="pawaedc"> -23316.07051721 </i>
    <i name="eentropy">      0.00536457 </i>
    <i name="bandstr">  -1614.75503552 </i>
    <i name="atom">  14068.13175480 </i>
    <i name="e_fr_energy">   -238.04362798 </i>
    <i name="e_wo_entrp">   -238.04899256 </i>
    <i name="e_0_energy">   -238.04496913 </i>
   </energy>
  </scstep>
  <structure>
   <crystal>
    <varray name="basis" >
     <v>       2.55240991      -4.42090365      -0.00000000 </v>
     <v>       2.55240991       4.42090365       0.00000000 </v>
     <v>      -0.00000000       0.00000000      13.74423291 </v>
    </varray>
    <i name="volume">    310.17870161 </i>
    <varray name="rec_basis" >
     <v>       0.19589330      -0.11309905       0.00000000 </v>
     <v>       0.19589330       0.11309905      -0.00000000 </v>
     <v>       0.00000000      -0.00000000       0.07275779 </v>
    </varray>
   </crystal>
   <varray name="positions" >
    <v>       0.66666667       0.33333333       0.05056396 </v>
    <v>       0.00000000       0.00000000       0.21723063 </v>
    <v>       0.33333333       0.66666667       0.38389730 </v>
    <v>       0.66666667       0.33333333       0.55056396 </v>
    <v>       0.00000000       0.00000000       0.71723063 </v>
    <v>       0.33333333       0.66666667       0.88389730 </v>
    <v>       0.66666667       0.33333333       0.33435729 </v>
    <v>       0.33333333       0.66666667       0.16769062 </v>
    <v>       0.33333333       0.66666667       0.66769062 </v>
    <v>       0.00000000       0.00000000       0.50102395 </v>
    <v>       0.00000000       0.00000000       0.00102395 </v>
    <v>       0.66666667       0.33333333       0.83435729 </v>
    <v>       0.62222135       0.98488118       0.26938181 </v>
    <v>       0.01511882       0.63734017       0.26938181 </v>
    <v>       0.36265983       0.37777865       0.26938181 </v>
    <v>       0.02932650       0.31821452       0.10271514 </v>
    <v>       0.68178548       0.71111198       0.10271514 </v>
    <v>       0.28888802       0.97067350       0.10271514 </v>
    <v>       0.28888802       0.31821452       0.60271514 </v>
    <v>       0.68178548       0.97067350       0.60271514 </v>
    <v>       0.02932650       0.71111198       0.60271514 </v>
    <v>       0.69599316       0.65154785       0.43604847 </v>
    <v>       0.34845215       0.04444531       0.43604847 </v>
    <v>       0.95555469       0.30400684       0.43604847 </v>
    <v>       0.95555469       0.65154785       0.93604847 </v>
    <v>       0.34845215       0.30400684       0.93604847 </v>
    <v>       0.69599316       0.04444531       0.93604847 </v>
    <v>       0.36265983       0.98488118       0.76938181 </v>
    <v>       0.01511882       0.37777865       0.76938181 </v>
    <v>       0.62222135       0.63734017       0.76938181 </v>
   </varray>
  </structure>
  <varray name="forces" >
   <v>      -0.00000000      -0.00000000       0.02083168 </v>
   <v>      -0.00000000      -0.00000000       0.02083168 </v>
   <v>      -0.00000000      -0.00000000       0.02083168 </v>
   <v>      -0.00000000      -0.00000000       0.02083168 </v>
   <v>      -0.00000000      -0.00000000       0.02083168 </v>
   <v>      -0.00000000      -0.00000000       0.02083168 </v>
   <v>      -0.00000000      -0.00000000      -0.19323970 </v>
   <v>      -0.00000000      -0.00000000      -0.19323970 </v>
   <v>      -0.00000000      -0.00000000      -0.19323970 </v>
   <v>      -0.00000000      -0.00000000      -0.19323970 </v>
   <v>      -0.00000000      -0.00000000      -0.19323970 </v>
   <v>      -0.00000000      -0.00000000      -0.19323970 </v>
   <v>       0.21870292      -0.27746408       0.05746934 </v>
   <v>       0.13093948       0.32813432       0.05746934 </v>
   <v>      -0.34964240      -0.05067025       0.05746934 </v>
   <v>      -0.13093948       0.32813432       0.05746934 </v>
   <v>      -0.21870292      -0.27746408       0.05746934 </v>
   <v>       0.34964240      -0.05067025       0.05746934 </v>
   <v>       0.21870292      -0.27746408       0.05746934 </v>
   <v>       0.13093948       0.32813432       0.05746934 </v>
   <v>      -0.34964240      -0.05067025       0.05746934 </v>
   <v>      -0.13093948       0.32813432       0.05746934 </v>
   <v>      -0.21870292      -0.27746408       0.05746934 </v>
   <v>       0.34964240      -0.05067025       0.05746934 </v>
   <v>       0.21870292      -0.27746408       0.05746934 </v>
   <v>       0.13093948       0.32813432       0.05746934 </v>
   <v>      -0.34964240      -0.05067025       0.05746934 </v>
   <v>      -0.13093948       0.32813432       0.05746934 </v>
   <v>      -0.21870292      -0.27746408       0.05746934 </v>
   <v>       0.34964240      -0.05067025       0.05746934 </v>
  </varray>
  <varray name="stress" >
   <v>      -5.36107268       0.00000000       0.00000000 </v>
   <v>       0.00000000      -5.36107268       0.00000000 </v>
   <v>      -0.00000000      -0.00000000       2.97306503 </v>
  </varray>
  <energy>
   <i name="e_fr_energy">   -238.04362798 </i>
   <i name="e_wo_entrp">   -238.04496913 </i>
   <i name="e_0_energy">      0.00536457 </i>
  </energy>
  <time name="totalsc">  454.24  454.72</time>
 </calculation>
 <calculation>
  <scstep>
   <time name="dav">   40.80   40.85</time>
   <time name="total">   43.82   43.86</time>
   <energy>
    <i name="alphaZ">    970.71796695 </i>
    <i name="ewald"> -10768.25990408 </i>
    <i name="hartreedc">  -3613.06452437 </i>
    <i name="XCdc">    648.03379003 </i>
    <i name="pawpsdc">  23374.58975936 </i>
    <i name="pawaedc"> -23317.67909635 </i>
    <i name="eentropy">      0.00448197 </i>
    <i name="bandstr">  -1600.51553239 </i>
    <i name="atom">  14068.13175480 </i>
    <i name="e_fr_energy">   -238.04130407 </i>
    <i name="e_wo_entrp">   -238.04578605 </i>
    <i name="e_0_energy">   -238.04242457 </i>
   </energy>
  </scstep>
  <scstep>
   <time name="diag">    6.86    6.87</time>
   <time name="diis">   31.86   31.90</time>
   <time name="orth">    0.94    0.94</time>
   <time name="total">   42.70   42.75</time>
   <energy>
    <i name="e_fr_energy">   -238.05448714 </i>
    <i name="e_wo_entrp">   -238.05904092 </i>
    <i name="e_0_energy">   -238.05562558 </i>
   </energy>
  </scstep>
  <scstep>
   <time name="diag">    6.85    6.85</time>
   <time name="diis">   32.38   32.43</time>
   <time name="orth">    0.94    0.94</time>
   <time name="total">   43.21   43.26</time>
   <energy>
    <i name="e_fr_energy">   -238.05201903 </i>
    <i name="e_wo_entrp">   -238.05665949 </i>
    <i name="e_0_energy">   -238.05317914 </i>
   </energy>
  </scstep>
  <scstep>
   <time name="diag">    6.86    6.87</time>
   <time name="diis">   33.84   33.88</time>
   <time name="orth">    0.94    0.94</time>
   <time name="total">   44.68   44.74</time>
   <energy>
    <i name="e_fr_energy">   -238.05097713 </i>
    <i name="e_wo_entrp">   -238.05559525 </i>
    <i name="e_0_energy">   -238.05213166 </i>
   </energy>
  </scstep>
  <scstep>
   <time name="diag">    6.86    6.87</time>
   <time name="diis">   28.04   28.07</time>
   <time name="orth">    0.93    0.93</time>
   <time name="total">   38.88   38.92</time>
   <energy>
    <i name="e_fr_energy">   -238.05072591 </i>
    <i name="e_wo_entrp">   -238.05537123 </i>
    <i name="e_0_energy">   -238.05188724 </i>
   </energy>
  </scstep>
  <scstep>
   <time name="diag">    6.85    6.85</time>
   <time name="diis">   24.41   24.44</time>
   <time name="orth">    0.94    0.94</time>
   <time name="total">   32.99   33.02</time>
   <energy>
    <i name="alphaZ">    970.71796695 </i>
    <i name="ewald"> -10768.25990408 </i>
    <i name="hartreedc">  -3601.93556853 </i>
    <i name="XCdc">    647.42652146 </i>
    <i name="pawpsdc">  23308.39081251 </i>
    <i name="pawaedc"> -23251.53665000 </i>
    <i name="eentropy">      0.00466869 </i>
    <i name="bandstr">  -1610.99028608 </i>
    <i name="atom">  14068.13175480 </i>
    <i name="e_fr_energy">   -238.05068429 </i>
    <i name="e_wo_entrp">   -238.05535297 </i>
    <i name="e_0_energy">   -238.05185146 </i>
   </energy>
  </scstep>
  <structure>
   <crystal>
    <varray name="basis" >
     <v>       2.55037674      -4.41738208      -0.00000000 </v>
     <v>       2.55037674       4.41738208       0.00000000 </v>
     <v>      -0.00000000       0.00000000      13.72077435 </v>
    </varray>
    <i name="volume">    309.15617187 </i>
    <varray name="rec_basis" >
     <v>       0.19604947      -0.11318921       0.00000000 </v>
     <v>       0.19604947       0.11318921      -0.00000000 </v>
     <v>       0.00000000      -0.00000000       0.07288218 </v>
    </varray>
   </crystal>
   <varray name="positions" >
    <v>       0.66666667       0.33333333       0.05057371 </v>
    <v>       0.00000000       0.00000000       0.21724037 </v>
    <v>       0.33333333       0.66666667       0.38390704 </v>
    <v>       0.66666667       0.33333333       0.55057371 </v>
    <v>       0.00000000       0.00000000       0.71724037 </v>
    <v>       0.33333333       0.66666667       0.88390704 </v>
    <v>       0.66666667       0.33333333       0.33469135 </v>
    <v>       0.33333333       0.66666667       0.16802468 </v>
    <v>       0.33333333       0.66666667       0.66802468 </v>
    <v>       0.00000000       0.00000000       0.50135801 </v>
    <v>       0.00000000       0.00000000       0.00135801 </v>
    <v>       0.66666667       0.33333333       0.83469135 </v>
    <v>       0.62254370       0.98391054       0.26926720 </v>
    <v>       0.01608946       0.63863316       0.26926720 </v>
    <v>       0.36136684       0.37745630       0.26926720 </v>
    <v>       0.02803351       0.31724388       0.10260054 </v>
    <v>       0.68275612       0.71078963       0.10260054 </v>
    <v>       0.28921037       0.97196649       0.10260054 </v>
    <v>       0.28921037       0.31724388       0.60260054 </v>
    <v>       0.68275612       0.97196649       0.60260054 </v>
    <v>       0.02803351       0.71078963       0.60260054 </v>
    <v>       0.69470018       0.65057721       0.43593387 </v>
    <v>       0.34942279       0.04412297       0.43593387 </v>
    <v>       0.95587703       0.30529982       0.43593387 </v>
    <v>       0.95587703       0.65057721       0.93593387 </v>
    <v>       0.34942279       0.30529982       0.93593387 </v>
    <v>       0.69470018       0.04412297       0.93593387 </v>
    <v>       0.36136684       0.98391054       0.76926720 </v>
    <v>       0.01608946       0.37745630       0.76926720 </v>
    <v>       0.62254370       0.63863316       0.76926720 </v>
   </varray>
  </structure>
  <varray name="forces" >
   <v>       0.00000000       0.00000000       0.02176586 </v>
   <v>       0.00000000       0.00000000       0.02176586 </v>
   <v>       0.00000000       0.00000000       0.02176586 </v>
   <v>       0.00000000       0.00000000       0.02176586 </v>
   <v>       0.00000000       0.00000000       0.02176586 </v>
   <v>       0.00000000       0.00000000       0.02176586 </v>
   <v>       0.00000000       0.00000000      -0.31271447 </v>
   <v>       0.00000000       0.00000000      -0.31271447 </v>
   <v>       0.00000000       0.00000000      -0.31271447 </v>
   <v>       0.00000000       0.00000000      -0.31271447 </v>
   <v>       0.00000000       0.00000000      -0.31271447 </v>
   <v>       0.00000000       0.00000000      -0.31271447 </v>
   <v>       0.29213725      -0.20082566       0.09698287 </v>
   <v>       0.02785150       0.35341111       0.09698287 </v>
   <v>      -0.31998875      -0.15258545       0.09698287 </v>
   <v>      -0.02785150       0.35341111       0.09698287 </v>
   <v>      -0.29213725      -0.20082566       0.09698287 </v>
   <v>       0.31998875      -0.15258545       0.09698287 </v>
   <v>       0.29213725      -0.20082566       0.09698287 </v>
   <v>       0.02785150       0.35341111       0.09698287 </v>
   <v>      -0.31998875      -0.15258545       0.09698287 </v>
   <v>      -0.02785150       0.35341111       0.09698287 </v>
   <v>      -0.29213725      -0.20082566       0.09698287 </v>
   <v>       0.31998875      -0.15258545       0.09698287 </v>
   <v>       0.29213725      -0.20082566       0.09698287 </v>
   <v>       0.02785150       0.35341111       0.09698287 </v>
   <v>      -0.31998875      -0.15258545       0.09698287 </v>
   <v>      -0.02785150       0.35341111       0.09698287 </v>
   <v>      -0.29213725      -0.20082566       0.09698287 </v>
   <v>       0.31998875      -0.15258545       0.09698287 </v>
  </varray>
  <varray name="stress" >
   <v>      -5.59583196      -0.00000000      -0.00000000 </v>
   <v>       0.00000000      -5.59583196      -0.00000000 </v>
   <v>       0.00000000       0.00000000       6.52931860 </v>
  </varray>
  <energy>
   <i name="e_fr_energy">   -238.05068429 </i>
   <i name="e_wo_entrp">   -238.05185146 </i>
   <i name="e_0_energy">      0.00466869 </i>
  </energy>
  <time name="totalsc">  299.73  300.04</time>
 </calculation>
 <calculation>
  <scstep>
   <time name="dav">   40.50   40.55</time>
   <time name="total">   43.50   43.55</time>
   <energy>
    <i name="alphaZ">    976.14343297 </i>
    <i name="ewald"> -10825.30039187 </i>
    <i name="hartreedc">  -3575.93551970 </i>
    <i name="XCdc">    648.40618877 </i>
    <i name="pawpsdc">  23306.45293826 </i>
    <i name="pawaedc"> -23249.59604037 </i>
    <i name="eentropy">     -0.00000000 </i>
    <i name="bandstr">  -1586.37214126 </i>
    <i name="atom">  14068.13175480 </i>
    <i name="e_fr_energy">   -238.06977841 </i>
    <i name="e_wo_entrp">   -238.06977841 </i>
    <i name="e_0_energy">   -238.06977841 </i>
   </energy>
  </scstep>
  <scstep>
   <time name="diag">    6.84    6.85</time>
   <time name="diis">   29.80   29.84</time>
   <time name="orth">    0.94    0.94</time>
   <time name="total">   40.63   40.67</time>
   <energy>
    <i name="e_fr_energy">   -238.17050050 </i>
    <i name="e_wo_entrp">   -238.17507137 </i>
    <i name="e_0_energy">   -238.17164322 </i>
   </energy>
  </scstep>
  <scstep>
   <time name="diag">    6.86    6.87</time>
   <time name="diis">   32.86   32.90</time>
   <time name="orth">    0.94    0.94</time>
   <time name="total">   43.70   43.75</time>
   <energy>
    <i name="e_fr_energy">   -238.17325769 </i>
    <i name="e_wo_entrp">   -238.17802783 </i>
    <i name="e_0_energy">   -238.17445022 </i>
   </energy>
  </scstep>
  <scstep>
   <time name="diag">    6.86    6.87</time>
   <time name="diis">   36.42   36.46</time>
   <time name="orth">    0.94    0.93</time>
   <time name="total">   47.26   47.31</time>
   <energy>
    <i name="e_fr_energy">   -238.16546939 </i>
    <i name="e_wo_entrp">   -238.17026479 </i>
    <i name="e_0_energy">   -238.16666824 </i>
   </energy>
  </scstep>
  <scstep>
   <time name="diag">    6.84    6.85</time>
   <time name="diis">   31.24   31.28</time>
   <time name="orth">    0.94    0.94</time>
   <time name="total">   42.06   42.11</time>
   <energy>
    <i name="e_fr_energy">   -238.16460475 </i>
    <i name="e_wo_entrp">   -238.16952812 </i>
    <i name="e_0_energy">   -238.16583559 </i>
   </energy>
  </scstep>
  <scstep>
   <time name="diag">    6.86    6.87</time>
   <time name="diis">   24.17   24.20</time>
   <time name="orth">    0.94    0.94</time>
   <time name="total">   32.77   32.81</time>
   <energy>
    <i name="alphaZ">    976.14343297 </i>
    <i name="ewald"> -10825.30039187 </i>
    <i name="hartreedc">  -3557.23374699 </i>
    <i name="XCdc">    647.42474737 </i>
    <i name="pawpsdc">  23252.89799609 </i>
    <i name="pawaedc"> -23195.89674926 </i>
    <i name="eentropy">      0.00495134 </i>
    <i name="bandstr">  -1604.33656379 </i>
    <i name="atom">  14068.13175480 </i>
    <i name="e_fr_energy">   -238.16456935 </i>
    <i name="e_wo_entrp">   -238.16952069 </i>
    <i name="e_0_energy">   -238.16580719 </i>
   </energy>
  </scstep>
  <structure>
   <crystal>
    <varray name="basis" >
     <v>       2.54376182      -4.40592471      -0.00000000 </v>
     <v>       2.54376182       4.40592471      -0.00000000 </v>
     <v>       0.00000000       0.00000000      13.71556934 </v>
    </varray>
    <i name="volume">    307.43786261 </i>
    <varray name="rec_basis" >
     <v>       0.19655928      -0.11348356       0.00000000 </v>
     <v>       0.19655928       0.11348356      -0.00000000 </v>
     <v>       0.00000000       0.00000000       0.07290984 </v>
    </varray>
   </crystal>
   <varray name="positions" >
    <v>       0.66666667       0.33333333       0.05065522 </v>
    <v>       0.00000000       0.00000000       0.21732189 </v>
    <v>       0.33333333       0.66666667       0.38398856 </v>
    <v>       0.66666667       0.33333333       0.55065522 </v>
    <v>       0.00000000       0.00000000       0.71732189 </v>
    <v>       0.33333333       0.66666667       0.88398856 </v>
    <v>       0.66666667       0.33333333       0.33413825 </v>
    <v>       0.33333333       0.66666667       0.16747158 </v>
    <v>       0.33333333       0.66666667       0.66747158 </v>
    <v>       0.00000000       0.00000000       0.50080492 </v>
    <v>       0.00000000       0.00000000       0.00080492 </v>
    <v>       0.66666667       0.33333333       0.83413825 </v>
    <v>       0.62643418       0.98414451       0.26942440 </v>
    <v>       0.01585549       0.64228967       0.26942440 </v>
    <v>       0.35771033       0.37356582       0.26942440 </v>
    <v>       0.02437700       0.31747784       0.10275773 </v>
    <v>       0.68252216       0.70689916       0.10275773 </v>
    <v>       0.29310084       0.97562300       0.10275773 </v>
    <v>       0.29310084       0.31747784       0.60275773 </v>
    <v>       0.68252216       0.97562300       0.60275773 </v>
    <v>       0.02437700       0.70689916       0.60275773 </v>
    <v>       0.69104366       0.65081117       0.43609106 </v>
    <v>       0.34918883       0.04023249       0.43609106 </v>
    <v>       0.95976751       0.30895634       0.43609106 </v>
    <v>       0.95976751       0.65081117       0.93609106 </v>
    <v>       0.34918883       0.30895634       0.93609106 </v>
    <v>       0.69104366       0.04023249       0.93609106 </v>
    <v>       0.35771033       0.98414451       0.76942440 </v>
    <v>       0.01585549       0.37356582       0.76942440 </v>
    <v>       0.62643418       0.64228967       0.76942440 </v>
   </varray>
  </structure>
  <varray name="forces" >
   <v>       0.00000000       0.00000000      -0.00558019 </v>
   <v>       0.00000000       0.00000000      -0.00558019 </v>
   <v>      -0.00000000       0.00000000      -0.00558019 </v>
   <v>       0.00000000       0.00000000      -0.00558019 </v>
   <v>       0.00000000       0.00000000      -0.00558019 </v>
   <v>      -0.00000000       0.00000000      -0.00558019 </v>
   <v>      -0.00000000       0.00000000      -0.21802634 </v>
   <v>      -0.00000000       0.00000000      -0.21802634 </v>
   <v>      -0.00000000       0.00000000      -0.21802634 </v>
   <v>      -0.00000000       0.00000000      -0.21802634 </v>
   <v>      -0.00000000       0.00000000      -0.21802634 </v>
   <v>      -0.00000000       0.00000000      -0.21802634 </v>
   <v>       0.21338375      -0.13386759       0.07453551 </v>
   <v>       0.00924086       0.25172954       0.07453551 </v>
   <v>      -0.22262461      -0.11786195       0.07453551 </v>
   <v>      -0.00924086       0.25172954       0.07453551 </v>
   <v>      -0.21338375      -0.13386759       0.07453551 </v>
   <v>       0.22262461      -0.11786195       0.07453551 </v>
   <v>       0.21338375      -0.13386759       0.07453551 </v>
   <v>       0.00924086       0.25172954       0.07453551 </v>
   <v>      -0.22262461      -0.11786195       0.07453551 </v>
   <v>      -0.00924086       0.25172954       0.07453551 </v>
   <v>      -0.21338375      -0.13386759       0.07453551 </v>
   <v>       0.22262461      -0.11786195       0.07453551 </v>
   <v>       0.21338375      -0.13386759       0.07453551 </v>
   <v>       0.00924086       0.25172954       0.07453551 </v>
   <v>      -0.22262461      -0.11786195       0.07453551 </v>
   <v>      -0.00924086       0.25172954       0.07453551 </v>
   <v>      -0.21338375      -0.13386759       0.07453551 </v>
   <v>       0.22262461      -0.11786195       0.07453551 </v>
  </varray>
  <varray name="stress" >
   <v>      -3.32346413       0.00000000       0.00000000 </v>
   <v>       0.00000000      -3.32346413      -0.00000000 </v>
   <v>       0.00000000      -0.00000000       7.82797430 </v>
  </varray>
  <energy>
   <i name="e_fr_energy">   -238.16456935 </i>
   <i name="e_wo_entrp">   -238.16580719 </i>
   <i name="e_0_energy">      0.00495134 </i>
  </energy>
  <time name="totalsc">  303.46  303.78</time>
 </calculation>
 <calculation>
  <scstep>
   <time name="dav">   40.14   40.18</time>
   <time name="total">   43.14   43.19</time>
   <energy>
    <i name="alphaZ">    988.51826749 </i>
    <i name="ewald"> -10953.17235797 </i>
    <i name="hartreedc">  -3498.98661460 </i>
    <i name="XCdc">    649.61924001 </i>
    <i name="pawpsdc">  23249.23640311 </i>
    <i name="pawaedc"> -23192.23040356 </i>
    <i name="eentropy">     -0.00000000 </i>
    <i name="bandstr">  -1548.87084803 </i>
    <i name="atom">  14068.13175480 </i>
    <i name="e_fr_energy">   -237.75455875 </i>
    <i name="e_wo_entrp">   -237.75455875 </i>
    <i name="e_0_energy">   -237.75455875 </i>
   </energy>
  </scstep>
  <scstep>
   <time name="diag">    6.87    6.87</time>
   <time name="diis">   30.48   30.52</time>
   <time name="orth">    0.94    0.94</time>
   <time name="total">   41.33   41.38</time>
   <energy>
    <i name="e_fr_energy">   -238.29903260 </i>
    <i name="e_wo_entrp">   -238.30651783 </i>
    <i name="e_0_energy">   -238.30090390 </i>
   </energy>
  </scstep>
  <scstep>
   <time name="diag">    6.87    6.87</time>
   <time name="diis">   33.38   33.42</time>
   <time name="orth">    0.93    0.93</time>
   <time name="total">   44.22   44.27</time>
   <energy>
    <i name="e_fr_energy">   -238.28941699 </i>
    <i name="e_wo_entrp">   -238.28941699 </i>
    <i name="e_0_energy">   -238.28941699 </i>
   </energy>
  </scstep>
  <scstep>
   <time name="diag">    6.85    6.85</time>
   <time name="diis">   36.84   36.88</time>
   <time name="orth">    0.94    0.94</time>
   <time name="total">   47.66   47.72</time>
   <energy>
    <i name="e_fr_energy">   -238.25731477 </i>
    <i name="e_wo_entrp">   -238.25731477 </i>
    <i name="e_0_energy">   -238.25731477 </i>
   </energy>
  </scstep>
  <scstep>
   <time name="diag">    6.86    6.86</time>
   <time name="diis">   33.36   33.40</time>
   <time name="orth">    0.94    0.94</time>
   <time name="total">   44.20   44.25</time>
   <energy>
    <i name="e_fr_energy">   -238.25245057 </i>
    <i name="e_wo_entrp">   -238.25245057 </i>
    <i name="e_0_energy">   -238.25245057 </i>
   </energy>
  </scstep>
  <scstep>
   <time name="diag">    6.86    6.87</time>
   <time name="diis">   30.35   30.39</time>
   <time name="orth">    0.93    0.93</time>
   <time name="total">   41.20   41.24</time>
   <energy>
    <i name="e_fr_energy">   -238.25169669 </i>
    <i name="e_wo_entrp">   -238.25169669 </i>
    <i name="e_0_energy">   -238.25169669 </i>
   </energy>
  </scstep>
  <scstep>
   <time name="diag">    6.81    6.81</time>
   <time name="diis">   23.98   24.01</time>
   <time name="orth">    0.97    0.97</time>
   <time name="total">   34.84   34.88</time>
   <energy>
    <i name="e_fr_energy">   -238.25170720 </i>
    <i name="e_wo_entrp">   -238.25170720 </i>
    <i name="e_0_energy">   -238.25170720 </i>
   </energy>
  </scstep>
  <scstep>
   <time name="diag">    7.06    7.07</time>
   <time name="diis">   21.77   21.80</time>
   <time name="orth">    0.97    0.97</time>
   <time name="total">   30.62   30.66</time>
   <energy>
    <i name="alphaZ">    988.51826749 </i>
    <i name="ewald"> -10953.17235797 </i>
    <i name="hartreedc">  -3458.00565174 </i>
    <i name="XCdc">    647.44151468 </i>
    <i name="pawpsdc">  23050.06639678 </i>
    <i name="pawaedc"> -22992.58342866 </i>
    <i name="eentropy">     -0.00000000 </i>
    <i name="bandstr">  -1588.64819409 </i>
    <i name="atom">  14068.13175480 </i>
    <i name="e_fr_energy">   -238.25169871 </i>
    <i name="e_wo_entrp">   -238.25169871 </i>
    <i name="e_0_energy">   -238.25169871 </i>
   </energy>
  </scstep>
  <structure>
   <crystal>
    <varray name="basis" >
     <v>       2.52887003      -4.38013138       0.00000000 </v>
     <v>       2.52887003       4.38013138      -0.00000000 </v>
     <v>       0.00000000       0.00000000      13.70385161 </v>
    </varray>
    <i name="volume">    303.58918040 </i>
    <varray name="rec_basis" >
     <v>       0.19771676      -0.11415183       0.00000000 </v>
     <v>       0.19771676       0.11415183      -0.00000000 </v>
     <v>       0.00000000       0.00000000       0.07297219 </v>
    </varray>
   </crystal>
   <varray name="positions" >
    <v>       0.66666667       0.33333333       0.05083881 </v>
    <v>       0.00000000       0.00000000       0.21750548 </v>
    <v>       0.33333333       0.66666667       0.38417214 </v>
    <v>       0.66666667       0.33333333       0.55083881 </v>
    <v>       0.00000000       0.00000000       0.71750548 </v>
    <v>       0.33333333       0.66666667       0.88417214 </v>
    <v>       0.66666667       0.33333333       0.33289262 </v>
    <v>       0.33333333       0.66666667       0.16622595 </v>
    <v>       0.33333333       0.66666667       0.66622595 </v>
    <v>       0.00000000       0.00000000       0.49955928 </v>
    <v>       0.00000000       0.00000000      -0.00044072 </v>
    <v>       0.66666667       0.33333333       0.83289262 </v>
    <v>       0.63521536       0.98467259       0.26977841 </v>
    <v>       0.01532741       0.65054277       0.26977841 </v>
    <v>       0.34945723       0.36478464       0.26977841 </v>
[...]
       <r>    30.7041     0.0000   123.0000 </r>
       <r>    30.9133     0.0000   123.0000 </r>
       <r>    31.1226     0.0000   123.0000 </r>
       <r>    31.3318     0.0000   123.0000 </r>
       <r>    31.5410     0.0000   123.0000 </r>
       <r>    31.7503     0.0000   123.0000 </r>
       <r>    31.9595     0.0000   123.0000 </r>
       <r>    32.1688     0.0000   123.0000 </r>
       <r>    32.3780     0.0000   123.0000 </r>
       <r>    32.5872     0.0000   123.0000 </r>
       <r>    32.7965     0.0000   123.0000 </r>
       <r>    33.0057     0.0000   123.0000 </r>
       <r>    33.2150     0.0000   123.0000 </r>
       <r>    33.4242     0.0000   123.0000 </r>
       <r>    33.6334     0.0000   123.0000 </r>
       <r>    33.8427     0.0000   123.0000 </r>
       <r>    34.0519     0.0000   123.0000 </r>
       <r>    34.2612     0.0000   123.0000 </r>
       <r>    34.4704     0.0000   123.0000 </r>
       <r>    34.6796     0.0000   123.0000 </r>
       <r>    34.8889     0.0000   123.0000 </r>
       <r>    35.0981     0.0000   123.0000 </r>
       <r>    35.3074     0.0000   123.0000 </r>
       <r>    35.5166     0.0000   123.0000 </r>
       <r>    35.7258     0.0000   123.0000 </r>
       <r>    35.9351     0.0000   123.0000 </r>
       <r>    36.1443     0.0000   123.0000 </r>
       <r>    36.3536     0.0000   123.0000 </r>
       <r>    36.5628     0.0000   123.0000 </r>
       <r>    36.7720     0.0000   123.0000 </r>
       <r>    36.9813     0.0000   123.0000 </r>
       <r>    37.1905     0.0000   123.0000 </r>
       <r>    37.3998     0.0000   123.0000 </r>
       <r>    37.6090     0.0000   123.0000 </r>
       <r>    37.8182     0.0000   123.0000 </r>
       <r>    38.0275     0.0000   123.0000 </r>
       <r>    38.2367     0.0000   123.0000 </r>
       <r>    38.4460     0.0000   123.0000 </r>
       <r>    38.6552     0.0000   123.0000 </r>
       <r>    38.8644     0.0000   123.0000 </r>
       <r>    39.0737     0.0000   123.0000 </r>
       <r>    39.2829     0.0000   123.0000 </r>
       <r>    39.4922     0.0000   123.0000 </r>
       <r>    39.7014     0.0000   123.0000 </r>
       <r>    39.9106     0.0000   123.0000 </r>
       <r>    40.1199     0.0000   123.0000 </r>
       <r>    40.3291     0.0000   123.0000 </r>
       <r>    40.5384     0.0000   123.0000 </r>
       <r>    40.7476     0.0000   123.0000 </r>
       <r>    40.9568     0.0000   123.0000 </r>
       <r>    41.1661     0.0000   123.0000 </r>
       <r>    41.3753     0.0000   123.0000 </r>
       <r>    41.5846     0.0000   123.0000 </r>
      </set>
      <set comment="spin 2">
       <r>   -21.1875    86.0256    18.0000 </r>
       <r>   -20.9782     0.0000    18.0000 </r>
       <r>   -20.7690     0.0000    18.0000 </r>
       <r>   -20.5598     0.0000    18.0000 </r>
       <r>   -20.3505     0.0000    18.0000 </r>
       <r>   -20.1413     0.0000    18.0000 </r>
       <r>   -19.9320     0.0000    18.0000 </r>
       <r>   -19.7228     0.0000    18.0000 </r>
       <r>   -19.5136     0.0000    18.0000 </r>
       <r>   -19.3043     0.0000    18.0000 </r>
       <r>   -19.0951     0.0000    18.0000 </r>
       <r>   -18.8858     0.0000    18.0000 </r>
       <r>   -18.6766     0.0000    18.0000 </r>
       <r>   -18.4674     0.0000    18.0000 </r>
       <r>   -18.2581     0.0000    18.0000 </r>
       <r>   -18.0489     0.0000    18.0000 </r>
       <r>   -17.8396     0.0000    18.0000 </r>
       <r>   -17.6304     0.0000    18.0000 </r>
       <r>   -17.4212     0.0000    18.0000 </r>
       <r>   -17.2119     0.0000    18.0000 </r>
       <r>   -17.0027     0.0000    18.0000 </r>
       <r>   -16.7934     0.0000    18.0000 </r>
       <r>   -16.5842     0.0000    18.0000 </r>
       <r>   -16.3750     0.0000    18.0000 </r>
       <r>   -16.1657     0.0000    18.0000 </r>
       <r>   -15.9565     0.0000    18.0000 </r>
       <r>   -15.7472     0.0000    18.0000 </r>
       <r>   -15.5380    -0.0074    17.9985 </r>
       <r>   -15.3288     0.3404    18.0697 </r>
       <r>   -15.1195     0.8614    18.2499 </r>
       <r>   -14.9103     7.7334    19.8681 </r>
       <r>   -14.7010     5.7807    21.0776 </r>
       <r>   -14.4918    15.2089    24.2600 </r>
       <r>   -14.2826    11.9791    26.7665 </r>
       <r>   -14.0733     9.7467    28.8059 </r>
       <r>   -13.8641    15.5064    32.0504 </r>
       <r>   -13.6548    16.9680    35.6008 </r>
       <r>   -13.4456     1.9095    36.0004 </r>
       <r>   -13.2364    -0.0020    35.9999 </r>
       <r>   -13.0271     0.0003    36.0000 </r>
       <r>   -12.8179     0.0000    36.0000 </r>
       <r>   -12.6086     0.0000    36.0000 </r>
       <r>   -12.3994     0.0000    36.0000 </r>
       <r>   -12.1902     0.0000    36.0000 </r>
       <r>   -11.9809     0.0000    36.0000 </r>
       <r>   -11.7717     0.0000    36.0000 </r>
       <r>   -11.5624     0.0000    36.0000 </r>
       <r>   -11.3532     0.0000    36.0000 </r>
       <r>   -11.1440     0.0000    36.0000 </r>
       <r>   -10.9347     0.0000    36.0000 </r>
       <r>   -10.7255     0.0000    36.0000 </r>
       <r>   -10.5162     0.0000    36.0000 </r>
       <r>   -10.3070     0.0000    36.0000 </r>
       <r>   -10.0978     0.0000    36.0000 </r>
       <r>    -9.8885     0.0000    36.0000 </r>
       <r>    -9.6793     0.0000    36.0000 </r>
       <r>    -9.4700     0.0000    36.0000 </r>
       <r>    -9.2608     0.0000    36.0000 </r>
       <r>    -9.0516     0.0000    36.0000 </r>
       <r>    -8.8423     0.0000    36.0000 </r>
       <r>    -8.6331     0.0000    36.0000 </r>
       <r>    -8.4238     0.0000    36.0000 </r>
       <r>    -8.2146     0.0000    36.0000 </r>
       <r>    -8.0054     0.0000    36.0000 </r>
       <r>    -7.7961     0.0000    36.0000 </r>
       <r>    -7.5869     0.0000    36.0000 </r>
       <r>    -7.3776     0.0000    36.0000 </r>
       <r>    -7.1684     0.0000    36.0000 </r>
       <r>    -6.9592     0.0000    36.0000 </r>
       <r>    -6.7499     0.0000    36.0000 </r>
       <r>    -6.5407     0.0000    36.0000 </r>
       <r>    -6.3314     0.0000    36.0000 </r>
       <r>    -6.1222     0.0000    36.0000 </r>
       <r>    -5.9130     0.0000    36.0000 </r>
       <r>    -5.7037     0.0000    36.0000 </r>
       <r>    -5.4945     0.0000    36.0000 </r>
       <r>    -5.2852     0.0000    36.0000 </r>
       <r>    -5.0760     0.0000    36.0000 </r>
       <r>    -4.8668     0.0000    36.0000 </r>
       <r>    -4.6575     0.0000    36.0000 </r>
       <r>    -4.4483     0.0000    36.0000 </r>
       <r>    -4.2390     0.0000    36.0000 </r>
       <r>    -4.0298     0.0000    36.0000 </r>
       <r>    -3.8206     0.0000    36.0000 </r>
       <r>    -3.6113     0.0000    36.0000 </r>
       <r>    -3.4021     0.0000    36.0000 </r>
       <r>    -3.1928     0.0014    36.0003 </r>
       <r>    -2.9836    -0.0231    35.9954 </r>
       <r>    -2.7744    10.5947    38.2123 </r>
       <r>    -2.5651    13.2197    40.9784 </r>
       <r>    -2.3559    13.0571    43.7104 </r>
       <r>    -2.1466     7.2679    45.2312 </r>
       <r>    -1.9374     9.5572    47.2309 </r>
       <r>    -1.7282    10.3463    49.3958 </r>
       <r>    -1.5189     9.1533    51.3110 </r>
       <r>    -1.3097     8.3803    53.0645 </r>
       <r>    -1.1004    10.6206    55.2868 </r>
       <r>    -0.8912     9.1711    57.2057 </r>
       <r>    -0.6820    10.8561    59.4773 </r>
       <r>    -0.4727    10.8184    61.7409 </r>
       <r>    -0.2635     5.8286    62.9605 </r>
       <r>    -0.0542     8.3467    64.7069 </r>
       <r>     0.1550     6.3253    66.0305 </r>
       <r>     0.3643     9.9490    68.1122 </r>
       <r>     0.5735    13.0532    70.8434 </r>
       <r>     0.7827    14.5270    73.8831 </r>
       <r>     0.9920    15.7222    77.1728 </r>
       <r>     1.2012    18.7705    81.1003 </r>
       <r>     1.4105    16.7015    84.5950 </r>
       <r>     1.6197    23.5445    89.5214 </r>
       <r>     1.8289     2.2725    89.9969 </r>
       <r>     2.0382     0.0147    90.0000 </r>
       <r>     2.2474     0.0000    90.0000 </r>
       <r>     2.4567     0.0000    90.0000 </r>
       <r>     2.6659     0.0000    90.0000 </r>
       <r>     2.8751     0.0000    90.0000 </r>
       <r>     3.0844     0.0000    90.0000 </r>
       <r>     3.2936     0.0000    90.0000 </r>
       <r>     3.5029     0.0000    90.0000 </r>
       <r>     3.7121     0.0000    90.0000 </r>
       <r>     3.9213     0.0000    90.0000 </r>
       <r>     4.1306     0.0000    90.0000 </r>
       <r>     4.3398     0.0000    90.0000 </r>
       <r>     4.5491     0.0000    90.0000 </r>
       <r>     4.7583     0.0000    90.0000 </r>
       <r>     4.9675     0.0072    90.0015 </r>
       <r>     5.1768     1.4095    90.2964 </r>
       <r>     5.3860    10.7568    92.5472 </r>
       <r>     5.5953     6.7247    93.9543 </r>
       <r>     5.8045     9.4575    95.9332 </r>
       <r>     6.0137     3.9956    96.7692 </r>
       <r>     6.2230    11.9637    99.2725 </r>
       <r>     6.4322    11.0308   101.5806 </r>
       <r>     6.6415     8.2791   103.3129 </r>
       <r>     6.8507    17.6369   107.0032 </r>
       <r>     7.0599     4.7944   108.0064 </r>
       <r>     7.2692    -0.0308   108.0000 </r>
       <r>     7.4784     0.0001   108.0000 </r>
       <r>     7.6877     0.0000   108.0000 </r>
       <r>     7.8969     0.0000   108.0000 </r>
       <r>     8.1061     0.0000   108.0000 </r>
       <r>     8.3154     0.0000   108.0000 </r>
       <r>     8.5246     0.0000   108.0000 </r>
       <r>     8.7339     0.0000   108.0000 </r>
       <r>     8.9431     0.0042   108.0009 </r>
       <r>     9.1523     0.3177   108.0673 </r>
       <r>     9.3616     5.7829   109.2774 </r>
       <r>     9.5708     9.7684   111.3213 </r>
       <r>     9.7801     3.0119   111.9515 </r>
       <r>     9.9893    11.0429   114.2621 </r>
       <r>    10.1985     4.6699   115.2393 </r>
       <r>    10.4078     3.4697   115.9653 </r>
       <r>    10.6170     2.5468   116.4982 </r>
       <r>    10.8263     3.9491   117.3245 </r>
       <r>    11.0355     5.5242   118.4803 </r>
       <r>    11.2447     5.7051   119.6741 </r>
       <r>    11.4540     6.8322   121.1036 </r>
       <r>    11.6632     0.1248   121.1298 </r>
       <r>    11.8725     0.7877   121.2946 </r>
       <r>    12.0817     2.5073   121.8192 </r>
       <r>    12.2909     3.7103   122.5955 </r>
       <r>    12.5002     0.7184   122.7459 </r>
       <r>    12.7094     1.2563   123.0087 </r>
       <r>    12.9187    -0.0418   123.0000 </r>
       <r>    13.1279     0.0001   123.0000 </r>
       <r>    13.3371     0.0000   123.0000 </r>
       <r>    13.5464     0.0000   123.0000 </r>
       <r>    13.7556     0.0000   123.0000 </r>
       <r>    13.9649     0.0000   123.0000 </r>
       <r>    14.1741     0.0000   123.0000 </r>
       <r>    14.3833     0.0000   123.0000 </r>
       <r>    14.5926     0.0000   123.0000 </r>
       <r>    14.8018     0.0000   123.0000 </r>
       <r>    15.0111     0.0000   123.0000 </r>
       <r>    15.2203     0.0000   123.0000 </r>
       <r>    15.4295     0.0000   123.0000 </r>
       <r>    15.6388     0.0000   123.0000 </r>
       <r>    15.8480     0.0000   123.0000 </r>
       <r>    16.0573     0.0000   123.0000 </r>
       <r>    16.2665     0.0000   123.0000 </r>
       <r>    16.4757     0.0000   123.0000 </r>
       <r>    16.6850     0.0000   123.0000 </r>
       <r>    16.8942     0.0000   123.0000 </r>
       <r>    17.1035     0.0000   123.0000 </r>
       <r>    17.3127     0.0000   123.0000 </r>
       <r>    17.5219     0.0000   123.0000 </r>
       <r>    17.7312     0.0000   123.0000 </r>
       <r>    17.9404     0.0000   123.0000 </r>
       <r>    18.1497     0.0000   123.0000 </r>
       <r>    18.3589     0.0000   123.0000 </r>
       <r>    18.5681     0.0000   123.0000 </r>
       <r>    18.7774     0.0000   123.0000 </r>
       <r>    18.9866     0.0000   123.0000 </r>
       <r>    19.1959     0.0000   123.0000 </r>
       <r>    19.4051     0.0000   123.0000 </r>
       <r>    19.6143     0.0000   123.0000 </r>
       <r>    19.8236     0.0000   123.0000 </r>
       <r>    20.0328     0.0000   123.0000 </r>
       <r>    20.2421     0.0000   123.0000 </r>
       <r>    20.4513     0.0000   123.0000 </r>
       <r>    20.6605     0.0000   123.0000 </r>
       <r>    20.8698     0.0000   123.0000 </r>
       <r>    21.0790     0.0000   123.0000 </r>
       <r>    21.2883     0.0000   123.0000 </r>
       <r>    21.4975     0.0000   123.0000 </r>
       <r>    21.7067     0.0000   123.0000 </r>
       <r>    21.9160     0.0000   123.0000 </r>
       <r>    22.1252     0.0000   123.0000 </r>
       <r>    22.3345     0.0000   123.0000 </r>
       <r>    22.5437     0.0000   123.0000 </r>
       <r>    22.7529     0.0000   123.0000 </r>
       <r>    22.9622     0.0000   123.0000 </r>
       <r>    23.1714     0.0000   123.0000 </r>
       <r>    23.3807     0.0000   123.0000 </r>
       <r>    23.5899     0.0000   123.0000 </r>
       <r>    23.7991     0.0000   123.0000 </r>
       <r>    24.0084     0.0000   123.0000 </r>
       <r>    24.2176     0.0000   123.0000 </r>
       <r>    24.4269     0.0000   123.0000 </r>
       <r>    24.6361     0.0000   123.0000 </r>
       <r>    24.8453     0.0000   123.0000 </r>
       <r>    25.0546     0.0000   123.0000 </r>
       <r>    25.2638     0.0000   123.0000 </r>
       <r>    25.4731     0.0000   123.0000 </r>
       <r>    25.6823     0.0000   123.0000 </r>
       <r>    25.8915     0.0000   123.0000 </r>
       <r>    26.1008     0.0000   123.0000 </r>
       <r>    26.3100     0.0000   123.0000 </r>
       <r>    26.5193     0.0000   123.0000 </r>
       <r>    26.7285     0.0000   123.0000 </r>
       <r>    26.9378     0.0000   123.0000 </r>
       <r>    27.1470     0.0000   123.0000 </r>
       <r>    27.3562     0.0000   123.0000 </r>
       <r>    27.5655     0.0000   123.0000 </r>
       <r>    27.7747     0.0000   123.0000 </r>
       <r>    27.9840     0.0000   123.0000 </r>
       <r>    28.1932     0.0000   123.0000 </r>
       <r>    28.4024     0.0000   123.0000 </r>
       <r>    28.6117     0.0000   123.0000 </r>
       <r>    28.8209     0.0000   123.0000 </r>
       <r>    29.0302     0.0000   123.0000 </r>
       <r>    29.2394     0.0000   123.0000 </r>
       <r>    29.4486     0.0000   123.0000 </r>
       <r>    29.6579     0.0000   123.0000 </r>
       <r>    29.8671     0.0000   123.0000 </r>
       <r>    30.0764     0.0000   123.0000 </r>
       <r>    30.2856     0.0000   123.0000 </r>
       <r>    30.4948     0.0000   123.0000 </r>
       <r>    30.7041     0.0000   123.0000 </r>
       <r>    30.9133     0.0000   123.0000 </r>
       <r>    31.1226     0.0000   123.0000 </r>
       <r>    31.3318     0.0000   123.0000 </r>
       <r>    31.5410     0.0000   123.0000 </r>
       <r>    31.7503     0.0000   123.0000 </r>
       <r>    31.9595     0.0000   123.0000 </r>
       <r>    32.1688     0.0000   123.0000 </r>
       <r>    32.3780     0.0000   123.0000 </r>
       <r>    32.5872     0.0000   123.0000 </r>
       <r>    32.7965     0.0000   123.0000 </r>
       <r>    33.0057     0.0000   123.0000 </r>
       <r>    33.2150     0.0000   123.0000 </r>
       <r>    33.4242     0.0000   123.0000 </r>
       <r>    33.6334     0.0000   123.0000 </r>
       <r>    33.8427     0.0000   123.0000 </r>
       <r>    34.0519     0.0000   123.0000 </r>
       <r>    34.2612     0.0000   123.0000 </r>
       <r>    34.4704     0.0000   123.0000 </r>
       <r>    34.6796     0.0000   123.0000 </r>
       <r>    34.8889     0.0000   123.0000 </r>
       <r>    35.0981     0.0000   123.0000 </r>
       <r>    35.3074     0.0000   123.0000 </r>
       <r>    35.5166     0.0000   123.0000 </r>
       <r>    35.7258     0.0000   123.0000 </r>
       <r>    35.9351     0.0000   123.0000 </r>
       <r>    36.1443     0.0000   123.0000 </r>
       <r>    36.3536     0.0000   123.0000 </r>
       <r>    36.5628     0.0000   123.0000 </r>
       <r>    36.7720     0.0000   123.0000 </r>
       <r>    36.9813     0.0000   123.0000 </r>
       <r>    37.1905     0.0000   123.0000 </r>
       <r>    37.3998     0.0000   123.0000 </r>
       <r>    37.6090     0.0000   123.0000 </r>
       <r>    37.8182     0.0000   123.0000 </r>
       <r>    38.0275     0.0000   123.0000 </r>
       <r>    38.2367     0.0000   123.0000 </r>
       <r>    38.4460     0.0000   123.0000 </r>
       <r>    38.6552     0.0000   123.0000 </r>
       <r>    38.8644     0.0000   123.0000 </r>
       <r>    39.0737     0.0000   123.0000 </r>
       <r>    39.2829     0.0000   123.0000 </r>
       <r>    39.4922     0.0000   123.0000 </r>
       <r>    39.7014     0.0000   123.0000 </r>
       <r>    39.9106     0.0000   123.0000 </r>
       <r>    40.1199     0.0000   123.0000 </r>
       <r>    40.3291     0.0000   123.0000 </r>
       <r>    40.5384     0.0000   123.0000 </r>
       <r>    40.7476     0.0000   123.0000 </r>
       <r>    40.9568     0.0000   123.0000 </r>
       <r>    41.1661     0.0000   123.0000 </r>
       <r>    41.3753     0.0000   123.0000 </r>
       <r>    41.5846     0.0000   123.0000 </r>
      </set>
     </set>
    </array>
   </total>
  </dos>
 </calculation>
 <structure name="finalpos" >
  <crystal>
   <varray name="basis" >
    <v>       2.53092224      -4.38368590       0.00000000 </v>
    <v>       2.53092224       4.38368590      -0.00000000 </v>
    <v>       0.00000000      -0.00000000      13.75271233 </v>
   </varray>
   <i name="volume">    305.16630906 </i>
   <varray name="rec_basis" >
    <v>       0.19755645      -0.11405927      -0.00000000 </v>
    <v>       0.19755645       0.11405927       0.00000000 </v>
    <v>       0.00000000       0.00000000       0.07271293 </v>
   </varray>
  </crystal>
  <varray name="positions" >
   <v>       0.66666667       0.33333333       0.04903538 </v>
   <v>       0.00000000       0.00000000       0.21570205 </v>
   <v>       0.33333333       0.66666667       0.38236872 </v>
   <v>       0.66666667       0.33333333       0.54903538 </v>
   <v>       0.00000000       0.00000000       0.71570205 </v>
   <v>       0.33333333       0.66666667       0.88236872 </v>
   <v>       0.66666667       0.33333333       0.33313432 </v>
   <v>       0.33333333       0.66666667       0.16646766 </v>
   <v>       0.33333333       0.66666667       0.66646766 </v>
   <v>       0.00000000       0.00000000       0.49980099 </v>
   <v>       0.00000000       0.00000000      -0.00019901 </v>
   <v>       0.66666667       0.33333333       0.83313432 </v>
   <v>       0.63414753       0.98491887       0.27029899 </v>
   <v>       0.01508113       0.64922866       0.27029899 </v>
   <v>       0.35077134       0.36585247       0.27029899 </v>
   <v>       0.01743801       0.31825221       0.10363232 </v>
   <v>       0.68174779       0.69918580       0.10363232 </v>
   <v>       0.30081420       0.98256199       0.10363232 </v>
   <v>       0.30081420       0.31825221       0.60363232 </v>
   <v>       0.68174779       0.98256199       0.60363232 </v>
   <v>       0.01743801       0.69918580       0.60363232 </v>
   <v>       0.68410467       0.65158554       0.43696565 </v>
   <v>       0.34841446       0.03251913       0.43696565 </v>
   <v>       0.96748087       0.31589533       0.43696565 </v>
   <v>       0.96748087       0.65158554       0.93696565 </v>
   <v>       0.34841446       0.31589533       0.93696565 </v>
   <v>       0.68410467       0.03251913       0.93696565 </v>
   <v>       0.35077134       0.98491887       0.77029899 </v>
   <v>       0.01508113       0.36585247       0.77029899 </v>
   <v>       0.63414753       0.64922866       0.77029899 </v>
  </varray>
 </structure>
</modeling>
