Crystal                                 
           1
     2.611495   -4.523242    0.000000
     2.611495    4.523242    0.000000
     0.000000    0.000000   14.129242
   Li   Nb   O 
   6   6  18
Crystal                                 
           1
     2.469208   -4.276794   -0.000000
     2.469208    4.276794   -0.000000
    -0.000000    0.000000   13.367502
   Li   Nb   O 
   6   6  18
Direct configuration=     1
   0.66666667  0.33333333  0.05050133
   0.00000000  0.00000000  0.21716800
   0.33333333  0.66666667  0.38383467
   0.66666667  0.33333333  0.55050133
   0.00000000  0.00000000  0.71716800
   0.33333333  0.66666667  0.88383467
   0.66666667  0.33333333  0.33256433
   0.33333333  0.66666667  0.16589767
   0.33333333  0.66666667  0.66589767
   0.00000000  0.00000000  0.49923100
   0.00000000  0.00000000  0.99923100
   0.66666667  0.33333333  0.83256433
   0.62036767  0.99005133  0.27000033
   0.00994867  0.63031633  0.27000033
   0.36968367  0.37963233  0.27000033
   0.03635033  0.32338467  0.10333367
   0.67661533  0.71296567  0.10333367
   0.28703433  0.96364967  0.10333367
   0.28703433  0.32338467  0.60333367
   0.67661533  0.96364967  0.60333367
   0.03635033  0.71296567  0.60333367
   0.70301700  0.65671800  0.43666700
   0.34328200  0.04629900  0.43666700
   0.95370100  0.29698300  0.43666700
   0.95370100  0.65671800  0.93666700
   0.34328200  0.29698300  0.93666700
   0.70301700  0.04629900  0.93666700
   0.36968367  0.99005133  0.77000033
   0.00994867  0.37963233  0.77000033
   0.62036767  0.63031633  0.77000033
Crystal                                 
           1
     2.563518   -4.440143   -0.000000
     2.563518    4.440143   -0.000000
    -0.000000    0.000000   13.872394
   Li   Nb   O 
   6   6  18
Direct configuration=     2
   0.66666667  0.33333333  0.05053439
   0.00000000  0.00000000  0.21720105
   0.33333333  0.66666667  0.38386772
   0.66666667  0.33333333  0.55053439
   0.00000000  0.00000000  0.71720105
   0.33333333  0.66666667  0.88386772
   0.66666667  0.33333333  0.33251340
   0.33333333  0.66666667  0.16584674
   0.33333333  0.66666667  0.66584674
   0.00000000  0.00000000  0.49918007
   0.00000000  0.00000000  0.99918007
   0.66666667  0.33333333  0.83251340
   0.62070296  0.99041838  0.27000629
   0.00958162  0.63028458  0.27000629
   0.36971542  0.37929704  0.27000629
   0.03638208  0.32375171  0.10333963
   0.67624829  0.71263037  0.10333963
   0.28736963  0.96361792  0.10333963
   0.28736963  0.32375171  0.60333963
   0.67624829  0.96361792  0.60333963
   0.03638208  0.71263037  0.60333963
   0.70304875  0.65708504  0.43667296
   0.34291496  0.04596371  0.43667296
   0.95403629  0.29695125  0.43667296
   0.95403629  0.65708504  0.93667296
   0.34291496  0.29695125  0.93667296
   0.70304875  0.04596371  0.93667296
   0.36971542  0.99041838  0.77000629
   0.00958162  0.37929704  0.77000629
   0.62070296  0.63028458  0.77000629
Crystal                                 
           1
     2.552410   -4.420904   -0.000000
     2.552410    4.420904    0.000000
    -0.000000    0.000000   13.744233
   Li   Nb   O 
   6   6  18
Direct configuration=     3
   0.66666667  0.33333333  0.05051123
   0.00000000  0.00000000  0.21717790
   0.33333333  0.66666667  0.38384456
   0.66666667  0.33333333  0.55051123
   0.00000000  0.00000000  0.71717790
   0.33333333  0.66666667  0.88384456
   0.66666667  0.33333333  0.33254908
   0.33333333  0.66666667  0.16588242
   0.33333333  0.66666667  0.66588242
   0.00000000  0.00000000  0.49921575
   0.00000000  0.00000000  0.99921575
   0.66666667  0.33333333  0.83254908
   0.62046792  0.99016108  0.27000212
   0.00983892  0.63030684  0.27000212
   0.36969316  0.37953208  0.27000212
   0.03635983  0.32349441  0.10333545
   0.67650559  0.71286542  0.10333545
   0.28713458  0.96364017  0.10333545
   0.28713458  0.32349441  0.60333545
   0.67650559  0.96364017  0.60333545
   0.03635983  0.71286542  0.60333545
   0.70302649  0.65682774  0.43666878
   0.34317226  0.04619875  0.43666878
   0.95380125  0.29697351  0.43666878
   0.95380125  0.65682774  0.93666878
   0.34317226  0.29697351  0.93666878
   0.70302649  0.04619875  0.93666878
   0.36969316  0.99016108  0.77000212
   0.00983892  0.37953208  0.77000212
   0.62046792  0.63030684  0.77000212
Crystal                                 
           1
     2.550377   -4.417382   -0.000000
     2.550377    4.417382    0.000000
    -0.000000    0.000000   13.720774
   Li   Nb   O 
   6   6  18
Direct configuration=     4
   0.66666667  0.33333333  0.05056396
   0.00000000  0.00000000  0.21723063
   0.33333333  0.66666667  0.38389730
   0.66666667  0.33333333  0.55056396
   0.00000000  0.00000000  0.71723063
   0.33333333  0.66666667  0.88389730
   0.66666667  0.33333333  0.33435729
   0.33333333  0.66666667  0.16769062
   0.33333333  0.66666667  0.66769062
   0.00000000  0.00000000  0.50102395
   0.00000000  0.00000000  0.00102395
   0.66666667  0.33333333  0.83435729
   0.62222135  0.98488118  0.26938181
   0.01511882  0.63734017  0.26938181
   0.36265983  0.37777865  0.26938181
   0.02932650  0.31821452  0.10271514
   0.68178548  0.71111198  0.10271514
   0.28888802  0.97067350  0.10271514
   0.28888802  0.31821452  0.60271514
   0.68178548  0.97067350  0.60271514
   0.02932650  0.71111198  0.60271514
   0.69599316  0.65154785  0.43604847
   0.34845215  0.04444531  0.43604847
   0.95555469  0.30400684  0.43604847
   0.95555469  0.65154785  0.93604847
   0.34845215  0.30400684  0.93604847
   0.69599316  0.04444531  0.93604847
   0.36265983  0.98488118  0.76938181
   0.01511882  0.37777865  0.76938181
   0.62222135  0.63734017  0.76938181
Crystal                                 
           1
     2.543762   -4.405925   -0.000000
     2.543762    4.405925   -0.000000
     0.000000    0.000000   13.715569
   Li   Nb   O 
   6   6  18
Direct configuration=     5
   0.66666667  0.33333333  0.05057371
   0.00000000  0.00000000  0.21724037
   0.33333333  0.66666667  0.38390704
   0.66666667  0.33333333  0.55057371
   0.00000000  0.00000000  0.71724037
   0.33333333  0.66666667  0.88390704
   0.66666667  0.33333333  0.33469135
   0.33333333  0.66666667  0.16802468
   0.33333333  0.66666667  0.66802468
   0.00000000  0.00000000  0.50135801
   0.00000000  0.00000000  0.00135801
   0.66666667  0.33333333  0.83469135
   0.62254370  0.98391054  0.26926720
   0.01608946  0.63863316  0.26926720
   0.36136684  0.37745630  0.26926720
   0.02803351  0.31724388  0.10260054
   0.68275612  0.71078963  0.10260054
   0.28921037  0.97196649  0.10260054
   0.28921037  0.31724388  0.60260054
   0.68275612  0.97196649  0.60260054
   0.02803351  0.71078963  0.60260054
   0.69470018  0.65057721  0.43593387
   0.34942279  0.04412297  0.43593387
   0.95587703  0.30529982  0.43593387
   0.95587703  0.65057721  0.93593387
   0.34942279  0.30529982  0.93593387
   0.69470018  0.04412297  0.93593387
   0.36136684  0.98391054  0.76926720
   0.01608946  0.37745630  0.76926720
   0.62254370  0.63863316  0.76926720
Crystal                                 
           1
     2.528870   -4.380131    0.000000
     2.528870    4.380131   -0.000000
     0.000000    0.000000   13.703852
   Li   Nb   O 
   6   6  18
Direct configuration=     6
   0.66666667  0.33333333  0.05065522
   0.00000000  0.00000000  0.21732189
   0.33333333  0.66666667  0.38398856
   0.66666667  0.33333333  0.55065522
   0.00000000  0.00000000  0.71732189
   0.33333333  0.66666667  0.88398856
   0.66666667  0.33333333  0.33413825
   0.33333333  0.66666667  0.16747158
   0.33333333  0.66666667  0.66747158
   0.00000000  0.00000000  0.50080492
   0.00000000  0.00000000  0.00080492
   0.66666667  0.33333333  0.83413825
   0.62643418  0.98414451  0.26942440
   0.01585549  0.64228967  0.26942440
   0.35771033  0.37356582  0.26942440
   0.02437700  0.31747784  0.10275773
   0.68252216  0.70689916  0.10275773
   0.29310084  0.97562300  0.10275773
   0.29310084  0.31747784  0.60275773
   0.68252216  0.97562300  0.60275773
   0.02437700  0.70689916  0.60275773
   0.69104366  0.65081117  0.43609106
   0.34918883  0.04023249  0.43609106
   0.95976751  0.30895634  0.43609106
   0.95976751  0.65081117  0.93609106
   0.34918883  0.30895634  0.93609106
   0.69104366  0.04023249  0.93609106
   0.35771033  0.98414451  0.76942440
   0.01585549  0.37356582  0.76942440
   0.62643418  0.64228967  0.76942440
Crystal                                 
           1
     2.531915   -4.385406    0.000000
     2.531915    4.385406   -0.000000
     0.000000    0.000000   13.706248
   Li   Nb   O 
   6   6  18
Direct configuration=     7
   0.66666667  0.33333333  0.05083881
   0.00000000  0.00000000  0.21750548
   0.33333333  0.66666667  0.38417214
   0.66666667  0.33333333  0.55083881
   0.00000000  0.00000000  0.71750548
   0.33333333  0.66666667  0.88417214
   0.66666667  0.33333333  0.33289262
   0.33333333  0.66666667  0.16622595
   0.33333333  0.66666667  0.66622595
   0.00000000  0.00000000  0.49955928
   0.00000000  0.00000000 -0.00044072
   0.66666667  0.33333333  0.83289262
   0.63521536  0.98467259  0.26977841
   0.01532741  0.65054277  0.26977841
   0.34945723  0.36478464  0.26977841
   0.01612389  0.31800592  0.10311175
   0.68199408  0.69811797  0.10311175
   0.30188203  0.98387611  0.10311175
   0.30188203  0.31800592  0.60311175
   0.68199408  0.98387611  0.60311175
   0.01612389  0.69811797  0.60311175
   0.68279056  0.65133926  0.43644508
   0.34866074  0.03145130  0.43644508
   0.96854870  0.31720944  0.43644508
   0.96854870  0.65133926  0.93644508
   0.34866074  0.31720944  0.93644508
   0.68279056  0.03145130  0.93644508
   0.34945723  0.98467259  0.76977841
   0.01532741  0.36478464  0.76977841
   0.63521536  0.65054277  0.76977841
Crystal                                 
           1
     2.531372   -4.384465    0.000000
     2.531372    4.384465   -0.000000
     0.000000    0.000000   13.705821
   Li   Nb   O 
   6   6  18
Direct configuration=     8
   0.66666667  0.33333333  0.05080124
   0.00000000  0.00000000  0.21746790
   0.33333333  0.66666667  0.38413457
   0.66666667  0.33333333  0.55080124
   0.00000000  0.00000000  0.71746790
   0.33333333  0.66666667  0.88413457
   0.66666667  0.33333333  0.33314755
   0.33333333  0.66666667  0.16648088
   0.33333333  0.66666667  0.66648088
   0.00000000  0.00000000  0.49981422
   0.00000000  0.00000000 -0.00018578
   0.66666667  0.33333333  0.83314755
   0.63340916  0.98456397  0.26970596
   0.01543603  0.64884519  0.26970596
   0.35115481  0.36659084  0.26970596
   0.01782147  0.31789730  0.10303929
   0.68210270  0.69992417  0.10303929
   0.30007583  0.98217853  0.10303929
   0.30007583  0.31789730  0.60303929
   0.68210270  0.98217853  0.60303929
   0.01782147  0.69992417  0.60303929
   0.68448814  0.65123063  0.43637263
   0.34876937  0.03325750  0.43637263
   0.96674250  0.31551186  0.43637263
   0.96674250  0.65123063  0.93637263
   0.34876937  0.31551186  0.93637263
   0.68448814  0.03325750  0.93637263
   0.35115481  0.98456397  0.76970596
   0.01543603  0.36659084  0.76970596
   0.63340916  0.64884519  0.76970596
Crystal                                 
           1
     2.530691   -4.383286    0.000000
     2.530691    4.383286   -0.000000
     0.000000    0.000000   13.705285
   Li   Nb   O 
   6   6  18
Direct configuration=     9
   0.66666667  0.33333333  0.05080793
   0.00000000  0.00000000  0.21747460
   0.33333333  0.66666667  0.38414127
   0.66666667  0.33333333  0.55080793
   0.00000000  0.00000000  0.71747460
   0.33333333  0.66666667  0.88414127
   0.66666667  0.33333333  0.33310211
   0.33333333  0.66666667  0.16643544
   0.33333333  0.66666667  0.66643544
   0.00000000  0.00000000  0.49976877
   0.00000000  0.00000000 -0.00023123
   0.66666667  0.33333333  0.83310211
   0.63373080  0.98458331  0.26971888
   0.01541669  0.64914749  0.26971888
   0.35085251  0.36626920  0.26971888
   0.01751918  0.31791664  0.10305221
   0.68208336  0.69960254  0.10305221
   0.30039746  0.98248082  0.10305221
   0.30039746  0.31791664  0.60305221
   0.68208336  0.98248082  0.60305221
   0.01751918  0.69960254  0.60305221
   0.68418585  0.65124998  0.43638554
   0.34875002  0.03293587  0.43638554
   0.96706413  0.31581415  0.43638554
   0.96706413  0.65124998  0.93638554
   0.34875002  0.31581415  0.93638554
   0.68418585  0.03293587  0.93638554
   0.35085251  0.98458331  0.76971888
   0.01541669  0.36626920  0.76971888
   0.63373080  0.64914749  0.76971888
Crystal                                 
           1
     2.534625   -4.390099    0.000000
     2.534625    4.390099   -0.000000
     0.000000    0.000000   13.761247
   Li   Nb   O 
   6   6  18
Direct configuration=    10
   0.66666667  0.33333333  0.05081633
   0.00000000  0.00000000  0.21748300
   0.33333333  0.66666667  0.38414967
   0.66666667  0.33333333  0.55081633
   0.00000000  0.00000000  0.71748300
   0.33333333  0.66666667  0.88414967
   0.66666667  0.33333333  0.33304511
   0.33333333  0.66666667  0.16637844
   0.33333333  0.66666667  0.66637844
   0.00000000  0.00000000  0.49971178
   0.00000000  0.00000000 -0.00028822
   0.66666667  0.33333333  0.83304511
   0.63413428  0.98460758  0.26973507
   0.01539242  0.64952671  0.26973507
   0.35047329  0.36586572  0.26973507
   0.01713996  0.31794091  0.10306841
   0.68205909  0.69919905  0.10306841
   0.30080095  0.98286004  0.10306841
   0.30080095  0.31794091  0.60306841
   0.68205909  0.98286004  0.60306841
   0.01713996  0.69919905  0.60306841
   0.68380663  0.65127424  0.43640174
   0.34872576  0.03253238  0.43640174
   0.96746762  0.31619337  0.43640174
   0.96746762  0.65127424  0.93640174
   0.34872576  0.31619337  0.93640174
   0.68380663  0.03253238  0.93640174
   0.35047329  0.98460758  0.76973507
   0.01539242  0.36586572  0.76973507
   0.63413428  0.64952671  0.76973507
Crystal                                 
           1
     2.532993   -4.387273    0.000000
     2.532993    4.387273   -0.000000
     0.000000    0.000000   13.738034
   Li   Nb   O 
   6   6  18
Direct configuration=    11
   0.66666667  0.33333333  0.05050915
   0.00000000  0.00000000  0.21717582
   0.33333333  0.66666667  0.38384249
   0.66666667  0.33333333  0.55050915
   0.00000000  0.00000000  0.71717582
   0.33333333  0.66666667  0.88384249
   0.66666667  0.33333333  0.33282772
   0.33333333  0.66666667  0.16616105
   0.33333333  0.66666667  0.66616105
   0.00000000  0.00000000  0.49949439
   0.00000000  0.00000000 -0.00050561
   0.66666667  0.33333333  0.83282772
   0.63440549  0.98524280  0.26990993
   0.01475720  0.64916268  0.26990993
   0.35083732  0.36559451  0.26990993
   0.01750398  0.31857614  0.10324326
   0.68142386  0.69892785  0.10324326
   0.30107215  0.98249602  0.10324326
   0.30107215  0.31857614  0.60324326
   0.68142386  0.98249602  0.60324326
   0.01750398  0.69892785  0.60324326
   0.68417065  0.65190947  0.43657660
   0.34809053  0.03226118  0.43657660
   0.96773882  0.31582935  0.43657660
   0.96773882  0.65190947  0.93657660
   0.34809053  0.31582935  0.93657660
   0.68417065  0.03226118  0.93657660
   0.35083732  0.98524280  0.76990993
   0.01475720  0.36559451  0.76990993
   0.63440549  0.64916268  0.76990993
Crystal                                 
           1
     2.530005   -4.382098    0.000000
     2.530005    4.382098   -0.000000
     0.000000   -0.000000   13.755198
   Li   Nb   O 
   6   6  18
Direct configuration=    12
   0.66666667  0.33333333  0.05063605
   0.00000000  0.00000000  0.21730272
   0.33333333  0.66666667  0.38396939
   0.66666667  0.33333333  0.55063605
   0.00000000  0.00000000  0.71730272
   0.33333333  0.66666667  0.88396939
   0.66666667  0.33333333  0.33291753
   0.33333333  0.66666667  0.16625086
   0.33333333  0.66666667  0.66625086
   0.00000000  0.00000000  0.49958419
   0.00000000  0.00000000 -0.00041581
   0.66666667  0.33333333  0.83291753
   0.63429316  0.98497972  0.26983770
   0.01502028  0.64931345  0.26983770
   0.35068655  0.36570684  0.26983770
   0.01735322  0.31831305  0.10317103
   0.68168695  0.69904017  0.10317103
   0.30095983  0.98264678  0.10317103
   0.30095983  0.31831305  0.60317103
   0.68168695  0.98264678  0.60317103
   0.01735322  0.69904017  0.60317103
   0.68401989  0.65164639  0.43650436
   0.34835361  0.03237350  0.43650436
   0.96762650  0.31598011  0.43650436
   0.96762650  0.65164639  0.93650436
   0.34835361  0.31598011  0.93650436
   0.68401989  0.03237350  0.93650436
   0.35068655  0.98497972  0.76983770
   0.01502028  0.36570684  0.76983770
   0.63429316  0.64931345  0.76983770
Crystal                                 
           1
     2.531614   -4.384885    0.000000
     2.531614    4.384885   -0.000000
     0.000000    0.000000   13.745955
   Li   Nb   O 
   6   6  18
Direct configuration=    13
   0.66666667  0.33333333  0.05024942
   0.00000000  0.00000000  0.21691608
   0.33333333  0.66666667  0.38358275
   0.66666667  0.33333333  0.55024942
   0.00000000  0.00000000  0.71691608
   0.33333333  0.66666667  0.88358275
   0.66666667  0.33333333  0.33271075
   0.33333333  0.66666667  0.16604408
   0.33333333  0.66666667  0.66604408
   0.00000000  0.00000000  0.49937742
   0.00000000  0.00000000 -0.00062258
   0.66666667  0.33333333  0.83271075
   0.63428392  0.98566788  0.27003550
   0.01433212  0.64861604  0.27003550
   0.35138396  0.36571608  0.27003550
   0.01805063  0.31900121  0.10336883
   0.68099879  0.69904941  0.10336883
   0.30095059  0.98194937  0.10336883
   0.30095059  0.31900121  0.60336883
   0.68099879  0.98194937  0.60336883
   0.01805063  0.69904941  0.60336883
   0.68471729  0.65233455  0.43670217
   0.34766545  0.03238274  0.43670217
   0.96761726  0.31528271  0.43670217
   0.96761726  0.65233455  0.93670217
   0.34766545  0.31528271  0.93670217
   0.68471729  0.03238274  0.93670217
   0.35138396  0.98566788  0.77003550
   0.01433212  0.36571608  0.77003550
   0.63428392  0.64861604  0.77003550
Crystal                                 
           1
     2.531692   -4.385018    0.000000
     2.531692    4.385018   -0.000000
     0.000000    0.000000   13.745512
   Li   Nb   O 
   6   6  18
Direct configuration=    14
   0.66666667  0.33333333  0.05045736
   0.00000000  0.00000000  0.21712403
   0.33333333  0.66666667  0.38379069
   0.66666667  0.33333333  0.55045736
   0.00000000  0.00000000  0.71712403
   0.33333333  0.66666667  0.88379069
   0.66666667  0.33333333  0.33282196
   0.33333333  0.66666667  0.16615529
   0.33333333  0.66666667  0.66615529
   0.00000000  0.00000000  0.49948863
   0.00000000  0.00000000 -0.00051137
   0.66666667  0.33333333  0.83282196
   0.63428891  0.98529687  0.26992912
   0.01470313  0.64899204  0.26992912
   0.35100796  0.36571109  0.26992912
   0.01767463  0.31863020  0.10326245
   0.68136980  0.69904443  0.10326245
   0.30095557  0.98232537  0.10326245
   0.30095557  0.31863020  0.60326245
   0.68136980  0.98232537  0.60326245
   0.01767463  0.69904443  0.60326245
   0.68434130  0.65196354  0.43659578
   0.34803646  0.03237776  0.43659578
   0.96762224  0.31565870  0.43659578
   0.96762224  0.65196354  0.93659578
   0.34803646  0.31565870  0.93659578
   0.68434130  0.03237776  0.93659578
   0.35100796  0.98529687  0.76992912
   0.01470313  0.36571109  0.76992912
   0.63428891  0.64899204  0.76992912
Crystal                                 
           1
     2.531649   -4.384944    0.000000
     2.531649    4.384944   -0.000000
     0.000000    0.000000   13.745758
   Li   Nb   O 
   6   6  18
Direct configuration=    15
   0.66666667  0.33333333  0.05046733
   0.00000000  0.00000000  0.21713400
   0.33333333  0.66666667  0.38380066
   0.66666667  0.33333333  0.55046733
   0.00000000  0.00000000  0.71713400
   0.33333333  0.66666667  0.88380066
   0.66666667  0.33333333  0.33282729
   0.33333333  0.66666667  0.16616063
   0.33333333  0.66666667  0.66616063
   0.00000000  0.00000000  0.49949396
   0.00000000  0.00000000 -0.00050604
   0.66666667  0.33333333  0.83282729
   0.63428914  0.98527910  0.26992401
   0.01472090  0.64901004  0.26992401
   0.35098996  0.36571086  0.26992401
   0.01765662  0.31861243  0.10325735
   0.68138757  0.69904419  0.10325735
   0.30095581  0.98234338  0.10325735
   0.30095581  0.31861243  0.60325735
   0.68138757  0.98234338  0.60325735
   0.01765662  0.69904419  0.60325735
   0.68432329  0.65194577  0.43659068
   0.34805423  0.03237752  0.43659068
   0.96762248  0.31567671  0.43659068
   0.96762248  0.65194577  0.93659068
   0.34805423  0.31567671  0.93659068
   0.68432329  0.03237752  0.93659068
   0.35098996  0.98527910  0.76992401
   0.01472090  0.36571086  0.76992401
   0.63428914  0.64901004  0.76992401
Crystal                                 
           1
     2.531630   -4.384912    0.000000
     2.531630    4.384912   -0.000000
     0.000000    0.000000   13.745864
   Li   Nb   O 
   6   6  18
Direct configuration=    16
   0.66666667  0.33333333  0.05046180
   0.00000000  0.00000000  0.21712847
   0.33333333  0.66666667  0.38379513
   0.66666667  0.33333333  0.55046180
   0.00000000  0.00000000  0.71712847
   0.33333333  0.66666667  0.88379513
   0.66666667  0.33333333  0.33282433
   0.33333333  0.66666667  0.16615767
   0.33333333  0.66666667  0.66615767
   0.00000000  0.00000000  0.49949100
   0.00000000  0.00000000 -0.00050900
   0.66666667  0.33333333  0.83282433
   0.63428901  0.98528896  0.26992684
   0.01471104  0.64900005  0.26992684
   0.35099995  0.36571099  0.26992684
   0.01766661  0.31862229  0.10326018
   0.68137771  0.69904432  0.10326018
   0.30095568  0.98233339  0.10326018
   0.30095568  0.31862229  0.60326018
   0.68137771  0.98233339  0.60326018
   0.01766661  0.69904432  0.60326018
   0.68433328  0.65195563  0.43659351
   0.34804437  0.03237766  0.43659351
   0.96762234  0.31566672  0.43659351
   0.96762234  0.65195563  0.93659351
   0.34804437  0.31566672  0.93659351
   0.68433328  0.03237766  0.93659351
   0.35099995  0.98528896  0.76992684
   0.01471104  0.36571099  0.76992684
   0.63428901  0.64900005  0.76992684
Crystal                                 
           1
     2.531653   -4.384951    0.000000
     2.531653    4.384951   -0.000000
     0.000000    0.000000   13.758011
   Li   Nb   O 
   6   6  18
Direct configuration=    17
   0.66666667  0.33333333  0.05045940
   0.00000000  0.00000000  0.21712607
   0.33333333  0.66666667  0.38379274
   0.66666667  0.33333333  0.55045940
   0.00000000  0.00000000  0.71712607
   0.33333333  0.66666667  0.88379274
   0.66666667  0.33333333  0.33282305
   0.33333333  0.66666667  0.16615639
   0.33333333  0.66666667  0.66615639
   0.00000000  0.00000000  0.49948972
   0.00000000  0.00000000 -0.00051028
   0.66666667  0.33333333  0.83282305
   0.63428895  0.98529323  0.26992807
   0.01470677  0.64899573  0.26992807
   0.35100427  0.36571105  0.26992807
   0.01767094  0.31862656  0.10326140
   0.68137344  0.69904438  0.10326140
   0.30095562  0.98232906  0.10326140
   0.30095562  0.31862656  0.60326140
   0.68137344  0.98232906  0.60326140
   0.01767094  0.69904438  0.60326140
   0.68433760  0.65195989  0.43659474
   0.34804011  0.03237771  0.43659474
   0.96762229  0.31566240  0.43659474
   0.96762229  0.65195989  0.93659474
   0.34804011  0.31566240  0.93659474
   0.68433760  0.03237771  0.93659474
   0.35100427  0.98529323  0.76992807
   0.01470677  0.36571105  0.76992807
   0.63428895  0.64899573  0.76992807
Crystal                                 
           1
     2.531682   -4.385001    0.000000
     2.531682    4.385001   -0.000000
     0.000000   -0.000000   13.773734
   Li   Nb   O 
   6   6  18
Direct configuration=    18
   0.66666667  0.33333333  0.05014671
   0.00000000  0.00000000  0.21681338
   0.33333333  0.66666667  0.38348004
   0.66666667  0.33333333  0.55014671
   0.00000000  0.00000000  0.71681338
   0.33333333  0.66666667  0.88348004
   0.66666667  0.33333333  0.33289355
   0.33333333  0.66666667  0.16622688
   0.33333333  0.66666667  0.66622688
   0.00000000  0.00000000  0.49956022
   0.00000000  0.00000000 -0.00043978
   0.66666667  0.33333333  0.83289355
   0.63417235  0.98530393  0.27000880
   0.01469607  0.64886842  0.27000880
   0.35113158  0.36582765  0.27000880
   0.01779824  0.31863726  0.10334214
   0.68136274  0.69916099  0.10334214
   0.30083901  0.98220176  0.10334214
   0.30083901  0.31863726  0.60334214
   0.68136274  0.98220176  0.60334214
   0.01779824  0.69916099  0.60334214
   0.68446491  0.65197059  0.43667547
   0.34802941  0.03249432  0.43667547
   0.96750568  0.31553509  0.43667547
   0.96750568  0.65197059  0.93667547
   0.34802941  0.31553509  0.93667547
   0.68446491  0.03249432  0.93667547
   0.35113158  0.98530393  0.77000880
   0.01469607  0.36582765  0.77000880
   0.63417235  0.64886842  0.77000880
Crystal                                 
           1
     2.530556   -4.383052    0.000000
     2.530556    4.383052   -0.000000
     0.000000   -0.000000   13.769216
   Li   Nb   O 
   6   6  18
Direct configuration=    19
   0.66666667  0.33333333  0.04974232
   0.00000000  0.00000000  0.21640899
   0.33333333  0.66666667  0.38307565
   0.66666667  0.33333333  0.54974232
   0.00000000  0.00000000  0.71640899
   0.33333333  0.66666667  0.88307565
   0.66666667  0.33333333  0.33298472
   0.33333333  0.66666667  0.16631805
   0.33333333  0.66666667  0.66631805
   0.00000000  0.00000000  0.49965139
   0.00000000  0.00000000 -0.00034861
   0.66666667  0.33333333  0.83298472
   0.63402142  0.98531778  0.27011321
   0.01468222  0.64870364  0.27011321
   0.35129636  0.36597858  0.27011321
   0.01796303  0.31865111  0.10344654
   0.68134889  0.69931192  0.10344654
   0.30068808  0.98203697  0.10344654
   0.30068808  0.31865111  0.60344654
   0.68134889  0.98203697  0.60344654
   0.01796303  0.69931192  0.60344654
   0.68462969  0.65198444  0.43677988
   0.34801556  0.03264525  0.43677988
   0.96735475  0.31537031  0.43677988
   0.96735475  0.65198444  0.93677988
   0.34801556  0.31537031  0.93677988
   0.68462969  0.03264525  0.93677988
   0.35129636  0.98531778  0.77011321
   0.01468222  0.36597858  0.77011321
   0.63402142  0.64870364  0.77011321
Crystal                                 
           1
     2.530383   -4.382752    0.000000
     2.530383    4.382752   -0.000000
     0.000000   -0.000000   13.768519
   Li   Nb   O 
   6   6  18
Direct configuration=    20
   0.66666667  0.33333333  0.04944219
   0.00000000  0.00000000  0.21610886
   0.33333333  0.66666667  0.38277552
   0.66666667  0.33333333  0.54944219
   0.00000000  0.00000000  0.71610886
   0.33333333  0.66666667  0.88277552
   0.66666667  0.33333333  0.33308442
   0.33333333  0.66666667  0.16641775
   0.33333333  0.66666667  0.66641775
   0.00000000  0.00000000  0.49975108
   0.00000000  0.00000000 -0.00024892
   0.66666667  0.33333333  0.83308442
   0.63388035  0.98520132  0.27018002
   0.01479868  0.64867902  0.27018002
   0.35132098  0.36611965  0.27018002
   0.01798764  0.31853466  0.10351335
   0.68146534  0.69945299  0.10351335
   0.30054701  0.98201236  0.10351335
   0.30054701  0.31853466  0.60351335
   0.68146534  0.98201236  0.60351335
   0.01798764  0.69945299  0.60351335
   0.68465431  0.65186799  0.43684669
   0.34813201  0.03278632  0.43684669
   0.96721368  0.31534569  0.43684669
   0.96721368  0.65186799  0.93684669
   0.34813201  0.31534569  0.93684669
   0.68465431  0.03278632  0.93684669
   0.35132098  0.98520132  0.77018002
   0.01479868  0.36611965  0.77018002
   0.63388035  0.64867902  0.77018002
Crystal                                 
           1
     2.530960   -4.383752    0.000000
     2.530960    4.383752   -0.000000
     0.000000   -0.000000   13.761586
   Li   Nb   O 
   6   6  18
Direct configuration=    21
   0.66666667  0.33333333  0.04939587
   0.00000000  0.00000000  0.21606254
   0.33333333  0.66666667  0.38272921
   0.66666667  0.33333333  0.54939587
   0.00000000  0.00000000  0.71606254
   0.33333333  0.66666667  0.88272921
   0.66666667  0.33333333  0.33309980
   0.33333333  0.66666667  0.16643314
   0.33333333  0.66666667  0.66643314
   0.00000000  0.00000000  0.49976647
   0.00000000  0.00000000 -0.00023353
   0.66666667  0.33333333  0.83309980
   0.63385857  0.98518335  0.27019033
   0.01481665  0.64867522  0.27019033
   0.35132478  0.36614143  0.27019033
   0.01799144  0.31851668  0.10352366
   0.68148332  0.69947476  0.10352366
   0.30052524  0.98200856  0.10352366
   0.30052524  0.31851668  0.60352366
   0.68148332  0.98200856  0.60352366
   0.01799144  0.69947476  0.60352366
   0.68465811  0.65185002  0.43685700
   0.34814998  0.03280809  0.43685700
   0.96719191  0.31534189  0.43685700
   0.96719191  0.65185002  0.93685700
   0.34814998  0.31534189  0.93685700
   0.68465811  0.03280809  0.93685700
   0.35132478  0.98518335  0.77019033
   0.01481665  0.36614143  0.77019033
   0.63385857  0.64867522  0.77019033
Crystal                                 
           1
     2.531075   -4.383950    0.000000
     2.531075    4.383950   -0.000000
     0.000000   -0.000000   13.760215
   Li   Nb   O 
   6   6  18
Direct configuration=    22
   0.66666667  0.33333333  0.04920786
   0.00000000  0.00000000  0.21587452
   0.33333333  0.66666667  0.38254119
   0.66666667  0.33333333  0.54920786
   0.00000000  0.00000000  0.71587452
   0.33333333  0.66666667  0.88254119
   0.66666667  0.33333333  0.33319389
   0.33333333  0.66666667  0.16652723
   0.33333333  0.66666667  0.66652723
   0.00000000  0.00000000  0.49986056
   0.00000000  0.00000000 -0.00013944
   0.66666667  0.33333333  0.83319389
   0.63385992  0.98496170  0.27022164
   0.01503830  0.64889823  0.27022164
   0.35110177  0.36614008  0.27022164
   0.01776844  0.31829503  0.10355497
   0.68170497  0.69947341  0.10355497
   0.30052659  0.98223156  0.10355497
   0.30052659  0.31829503  0.60355497
   0.68170497  0.98223156  0.60355497
   0.01776844  0.69947341  0.60355497
   0.68443511  0.65162836  0.43688831
   0.34837164  0.03280674  0.43688831
   0.96719326  0.31556489  0.43688831