   2   2   0   0
  0.1145315E+02  0.2840000E-09  0.2840000E-09  0.2840000E-09  0.5000000E-15
  1.000000000000000E-004
  CAR 
 Crystal                                 
     30.55840546     -4.37688411  301      5.84675883      1.00000000
     -4.377  0.0000E+00  0.0000E+00  0.0000E+00  0.0000E+00
     -4.260  0.0000E+00  0.0000E+00  0.0000E+00  0.0000E+00
     -4.144  0.0000E+00  0.0000E+00  0.0000E+00  0.0000E+00
     -4.028  0.0000E+00  0.0000E+00  0.0000E+00  0.0000E+00
     -3.911  0.0000E+00  0.0000E+00  0.0000E+00  0.0000E+00
     -3.795  0.0000E+00  0.0000E+00  0.0000E+00  0.0000E+00
     -3.678  0.0000E+00  0.0000E+00  0.0000E+00  0.0000E+00
     -3.562  0.0000E+00  0.0000E+00  0.0000E+00  0.0000E+00
     -3.445  0.1508E-35  0.0000E+00  0.1756E-36  0.0000E+00
     -3.329  0.2719E-27  0.0000E+00  0.3167E-28  0.0000E+00
     -3.212  0.3015E-20  0.1070E-29  0.3511E-21  0.1246E-30
     -3.096  0.1986E-14  0.2799E-22  0.2313E-15  0.3260E-23
     -2.979  0.7235E-10  0.4409E-16  0.8425E-11  0.5135E-17
     -2.863  0.1218E-06  0.3948E-11  0.1419E-07  0.4598E-12
     -2.747  0.3131E-05  0.1767E-07  0.3788E-06  0.2058E-08
     -2.630 -0.2940E-04  0.2379E-05 -0.3045E-05  0.2791E-06
     -2.514  0.6196E-03 -0.3211E-04  0.6911E-04 -0.3461E-05
     -2.397  0.9871E-04  0.3933E-03  0.8060E-04  0.4234E-04
     -2.281 -0.5877E-05  0.3499E-03  0.7992E-04  0.8308E-04
     -2.164  0.6847E-06 -0.2855E-04  0.8000E-04  0.7975E-04
     -2.048  0.6962E-06  0.2099E-05  0.8008E-04  0.8000E-04
     -1.931  0.1904E-04  0.7648E-07  0.8230E-04  0.8001E-04
     -1.815 -0.1833E-03  0.1169E-04  0.6096E-04  0.8137E-04
     -1.699  0.3693E-02 -0.1589E-03  0.4910E-03  0.6287E-04
     -1.582  0.6260E-03  0.1957E-02  0.5639E-03  0.2907E-03
     -1.466 -0.3811E-04  0.2500E-02  0.5595E-03  0.5819E-03
     -1.349  0.4413E-05 -0.2031E-03  0.5600E-03  0.5582E-03
     -1.233  0.2488E-04  0.1518E-04  0.5629E-03  0.5600E-03
     -1.116 -0.3383E-03  0.2157E-05  0.5235E-03  0.5602E-03
     -1.000  0.4149E-02  0.3211E-04  0.1007E-02  0.5640E-03
     -0.883  0.4768E-02 -0.2316E-03  0.1562E-02  0.5370E-03
     -0.767 -0.3891E-03  0.7704E-02  0.1517E-02  0.1434E-02
     -0.650  0.2891E-04  0.7675E-03  0.1520E-02  0.1524E-02
     -0.534  0.1181E-04 -0.3641E-04  0.1521E-02  0.1519E-02
     -0.418 -0.1517E-03  0.6532E-05  0.1504E-02  0.1520E-02
     -0.301  0.1952E-02  0.2227E-04  0.1731E-02  0.1523E-02
     -0.185  0.3965E-02 -0.2912E-03  0.2193E-02  0.1489E-02
     -0.068 -0.3051E-03  0.3651E-02  0.2157E-02  0.1914E-02
      0.048  0.3117E-04  0.2282E-02  0.2161E-02  0.2180E-02
      0.165 -0.8670E-04 -0.1823E-03  0.2151E-02  0.2158E-02
      0.281  0.1175E-02  0.1432E-04  0.2288E-02  0.2160E-02
      0.398  0.3261E-02  0.1861E-04  0.2667E-02  0.2162E-02
      0.514 -0.4679E-03 -0.1701E-03  0.2613E-02  0.2142E-02
      0.631  0.3491E-02  0.3738E-02  0.3019E-02  0.2578E-02
      0.747  0.1402E-01  0.5642E-03  0.4651E-02  0.2643E-02
      0.863 -0.5119E-03  0.1076E-04  0.4592E-02  0.2645E-02
      0.980  0.8264E-02 -0.5868E-03  0.5554E-02  0.2576E-02
      1.096  0.1519E-03  0.7330E-02  0.5572E-02  0.3430E-02
      1.213  0.2206E-01  0.1049E-01  0.8141E-02  0.4651E-02
      1.329  0.5530E-02 -0.8452E-03  0.8785E-02  0.4553E-02
      1.446  0.6591E-02  0.1115E-03  0.9552E-02  0.4566E-02
      1.562  0.1872E-01 -0.6476E-03  0.1173E-01  0.4490E-02
      1.679  0.3165E-01  0.7994E-02  0.1542E-01  0.5421E-02
      1.795  0.1802E-01  0.9558E-02  0.1752E-01  0.6534E-02
      1.911  0.2015E-02  0.2917E-02  0.1775E-01  0.6874E-02
      2.028  0.1294E-01  0.5250E-02  0.1926E-01  0.7485E-02
      2.144  0.1599E-01 -0.4180E-03  0.2112E-01  0.7436E-02
      2.261  0.3440E-02  0.7857E-04  0.2152E-01  0.7446E-02
      2.377  0.1017E-01 -0.4348E-03  0.2271E-01  0.7395E-02
      2.494  0.2482E-01  0.7131E-02  0.2560E-01  0.8225E-02
      2.610  0.3859E-01  0.1767E-01  0.3009E-01  0.1028E-01
      2.727  0.2274E-01  0.2092E-02  0.3274E-01  0.1053E-01
      2.843  0.2758E-01  0.5588E-02  0.3595E-01  0.1118E-01
      2.960  0.5453E-02  0.1922E-01  0.3659E-01  0.1341E-01
      3.076  0.2481E-01  0.1664E-01  0.3947E-01  0.1535E-01
      3.192  0.3226E-01  0.1708E-03  0.4323E-01  0.1537E-01
      3.309  0.1745E-01  0.2274E-01  0.4526E-01  0.1802E-01
      3.425  0.1251E-01  0.6426E-02  0.4672E-01  0.1877E-01
      3.542  0.2454E-01  0.7445E-02  0.4958E-01  0.1964E-01
      3.658  0.3671E-01  0.9031E-02  0.5385E-01  0.2069E-01
      3.775  0.2064E-01  0.9032E-02  0.5626E-01  0.2174E-01
      3.891  0.7903E-02  0.5751E-02  0.5718E-01  0.2241E-01
      4.008  0.7333E-02  0.7737E-02  0.5803E-01  0.2331E-01
      4.124  0.4362E-03  0.3121E-01  0.5808E-01  0.2695E-01
      4.240  0.8949E-04  0.3521E-01  0.5809E-01  0.3105E-01
      4.357 -0.3669E-03  0.1511E-01  0.5805E-01  0.3281E-01
      4.473  0.3863E-01  0.3175E-01  0.6255E-01  0.3650E-01
      4.590  0.3249E-01  0.4367E-02  0.6633E-01  0.3701E-01
      4.706  0.2499E-01  0.1293E-01  0.6924E-01  0.3852E-01
      4.823  0.3476E-01  0.4036E-01  0.7329E-01  0.4322E-01
      4.939  0.4641E-01  0.3206E-01  0.7869E-01  0.4695E-01
      5.056  0.4588E-01  0.2860E-01  0.8404E-01  0.5028E-01
      5.172  0.4141E-01  0.4621E-02  0.8886E-01  0.5082E-01
      5.289  0.2081E-01  0.2201E-01  0.9128E-01  0.5338E-01
      5.405  0.2497E-01  0.1122E-01  0.9419E-01  0.5469E-01
      5.521  0.3305E-01  0.1191E-01  0.9804E-01  0.5608E-01
      5.638  0.1813E-01  0.1039E-01  0.1001E+00  0.5729E-01
      5.754 -0.1200E-02  0.1037E-01  0.1000E+00  0.5849E-01
      5.871  0.1194E-01  0.4970E-02  0.1014E+00  0.5907E-01
      5.987  0.1295E-01 -0.2718E-03  0.1029E+00  0.5904E-01
      6.104  0.8991E-02 -0.3343E-03  0.1040E+00  0.5900E-01
      6.220  0.5603E-02  0.4552E-02  0.1046E+00  0.5953E-01
      6.337  0.1171E-01  0.1493E-01  0.1060E+00  0.6127E-01
      6.453  0.1343E-01  0.1231E-01  0.1075E+00  0.6270E-01
      6.570 -0.8969E-03  0.1429E-01  0.1074E+00  0.6437E-01
      6.686  0.8183E-04  0.8708E-03  0.1074E+00  0.6447E-01
      6.802  0.1539E-05  0.2036E-01  0.1074E+00  0.6684E-01
      6.919  0.6434E-09  0.9469E-02  0.1074E+00  0.6794E-01
      7.035  0.3829E-13  0.2984E-01  0.1074E+00  0.7142E-01
      7.152  0.7673E-09  0.2335E-01  0.1074E+00  0.7414E-01
      7.268  0.1047E-05  0.2486E-01  0.1074E+00  0.7703E-01
      7.385  0.1569E-04  0.3306E-01  0.1074E+00  0.8088E-01
      7.501 -0.1085E-03  0.2593E-01  0.1074E+00  0.8390E-01
      7.618  0.3907E-02  0.1381E-01  0.1079E+00  0.8551E-01
      7.734 -0.1598E-03  0.6617E-01  0.1079E+00  0.9322E-01
      7.850  0.7089E-02  0.3880E-01  0.1087E+00  0.9773E-01
      7.967  0.1878E-01  0.2690E-01  0.1109E+00  0.1009E+00
      8.083  0.3026E-02  0.1667E-01  0.1112E+00  0.1028E+00
      8.200  0.1362E-01  0.8027E-02  0.1128E+00  0.1037E+00
      8.316 -0.9039E-03  0.2231E-01  0.1127E+00  0.1063E+00
      8.433  0.7902E-04  0.7037E-02  0.1127E+00  0.1072E+00
      8.549  0.1625E-05  0.2565E-02  0.1127E+00  0.1075E+00
      8.666  0.7342E-09 -0.1816E-03  0.1127E+00  0.1074E+00
      8.782  0.2071E-06  0.1954E-04  0.1127E+00  0.1074E+00
      8.899  0.4276E-04 -0.2020E-06  0.1127E+00  0.1074E+00
      9.015 -0.5779E-03  0.3005E-03  0.1127E+00  0.1075E+00
      9.131  0.7187E-02  0.7719E-02  0.1135E+00  0.1084E+00
      9.248  0.1062E-01  0.2302E-02  0.1147E+00  0.1086E+00
      9.364 -0.8542E-03  0.1417E-02  0.1146E+00  0.1088E+00
      9.481  0.6490E-04  0.1069E-01  0.1146E+00  0.1101E+00
      9.597  0.4079E-04  0.1108E-01  0.1146E+00  0.1113E+00
      9.714 -0.5392E-03  0.1263E-01  0.1146E+00  0.1128E+00
      9.830  0.6765E-02 -0.8829E-03  0.1154E+00  0.1127E+00
      9.947  0.1103E-01  0.7824E-04  0.1167E+00  0.1127E+00
     10.063 -0.8698E-03  0.1420E-05  0.1166E+00  0.1127E+00
     10.179 -0.2454E-04  0.4446E-07  0.1166E+00  0.1127E+00
     10.296  0.1302E-02  0.1990E-04  0.1167E+00  0.1127E+00
     10.412  0.4551E-02 -0.2031E-03  0.1172E+00  0.1127E+00
     10.529 -0.2995E-03  0.3091E-02  0.1172E+00  0.1131E+00
     10.645  0.2642E-04  0.1432E-01  0.1172E+00  0.1147E+00
     10.762  0.5704E-06 -0.7886E-03  0.1172E+00  0.1146E+00
     10.878  0.2527E-09 -0.4164E-03  0.1172E+00  0.1146E+00
     10.995  0.5315E-14  0.6291E-02  0.1172E+00  0.1153E+00
     11.111  0.0000E+00  0.1149E-01  0.1172E+00  0.1167E+00
     11.228  0.8591E-35 -0.8999E-03  0.1172E+00  0.1166E+00
     11.344  0.1561E-26  0.7882E-04  0.1172E+00  0.1166E+00
     11.460  0.1742E-19 -0.1052E-03  0.1172E+00  0.1165E+00
     11.577  0.1156E-13  0.1457E-02  0.1172E+00  0.1167E+00
     11.693  0.4243E-09  0.4416E-02  0.1172E+00  0.1172E+00
     11.810  0.7200E-06 -0.3064E-03  0.1172E+00  0.1172E+00
     11.926  0.1887E-04  0.2612E-04  0.1172E+00  0.1172E+00
     12.043 -0.1754E-03  0.4897E-06  0.1172E+00  0.1172E+00
     12.159  0.3729E-02  0.2003E-09  0.1176E+00  0.1172E+00
     12.276  0.6140E-03  0.3949E-14  0.1177E+00  0.1172E+00
     12.392  0.7855E-02  0.4786E-11  0.1186E+00  0.1172E+00
     12.509  0.3216E-03  0.3484E-07  0.1186E+00  0.1172E+00
     12.625 -0.2464E-05  0.8927E-05  0.1186E+00  0.1172E+00
     12.741  0.4360E-05 -0.1175E-03  0.1186E+00  0.1172E+00
     12.858  0.4838E-05  0.1505E-02  0.1186E+00  0.1174E+00
     12.974  0.1270E-04  0.2974E-02  0.1186E+00  0.1177E+00
     13.091  0.1919E-03 -0.6010E-03  0.1187E+00  0.1176E+00
     13.207  0.1057E-01  0.7378E-02  0.1199E+00  0.1185E+00
     13.324 -0.6342E-04  0.1288E-02  0.1199E+00  0.1186E+00
     13.440  0.3519E-02 -0.7930E-04  0.1203E+00  0.1186E+00
     13.557  0.1131E-01  0.8702E-05  0.1216E+00  0.1186E+00
     13.673  0.2229E-01  0.1754E-07  0.1242E+00  0.1186E+00
     13.789 -0.1253E-02  0.9823E-06  0.1241E+00  0.1186E+00
     13.906  0.1209E-03  0.5225E-04  0.1241E+00  0.1186E+00
     14.022  0.2487E-04 -0.6126E-03  0.1241E+00  0.1186E+00
     14.139 -0.2870E-03  0.8836E-02  0.1240E+00  0.1196E+00
     14.255  0.3572E-02  0.2921E-02  0.1245E+00  0.1199E+00
     14.372  0.5333E-02 -0.3347E-03  0.1251E+00  0.1199E+00
     14.488 -0.4284E-03  0.1990E-02  0.1250E+00  0.1201E+00
     14.605  0.3249E-04  0.9066E-02  0.1250E+00  0.1212E+00
     14.721  0.3113E-06  0.7279E-02  0.1250E+00  0.1220E+00
     14.838  0.8320E-10  0.1862E-01  0.1250E+00  0.1242E+00
     14.954  0.1097E-14 -0.1184E-02  0.1250E+00  0.1241E+00
     15.070  0.7308E-36  0.3142E-04  0.1250E+00  0.1241E+00
     15.187  0.1597E-27  0.7857E-02  0.1250E+00  0.1250E+00
     15.303  0.2149E-20  0.4445E-03  0.1250E+00  0.1250E+00
     15.420  0.1725E-14 -0.1169E-04  0.1250E+00  0.1250E+00
     15.536  0.7702E-10  0.4896E-05  0.1250E+00  0.1250E+00
     15.653  0.1622E-06  0.6226E-08  0.1250E+00  0.1250E+00
     15.769  0.6618E-05  0.2413E-10  0.1250E+00  0.1250E+00
     15.886 -0.7256E-04  0.7469E-07  0.1250E+00  0.1250E+00
     16.002  0.1166E-02  0.5985E-05  0.1252E+00  0.1250E+00
     16.118  0.3839E-03 -0.7603E-04  0.1252E+00  0.1250E+00
     16.235 -0.1037E-02  0.9838E-03  0.1251E+00  0.1251E+00
     16.351  0.1469E-01  0.4959E-03  0.1268E+00  0.1252E+00
     16.468  0.2000E-01 -0.3866E-04  0.1291E+00  0.1252E+00
     16.584 -0.8924E-03  0.2944E-05  0.1290E+00  0.1252E+00
     16.701  0.9650E-04  0.1135E-07  0.1290E+00  0.1252E+00
     16.817  0.3793E-05  0.7341E-08  0.1290E+00  0.1252E+00
     16.934  0.2537E-08  0.7412E-05  0.1290E+00  0.1252E+00
     17.050  0.3249E-08  0.7072E-04  0.1290E+00  0.1252E+00
     17.167  0.2510E-05 -0.4182E-03  0.1290E+00  0.1252E+00
     17.283 -0.6912E-05  0.2410E-01  0.1290E+00  0.1280E+00
     17.399  0.2367E-03  0.9920E-02  0.1291E+00  0.1291E+00
     17.516  0.3922E-02 -0.7658E-03  0.1295E+00  0.1290E+00
     17.632 -0.4580E-04  0.7992E-04  0.1295E+00  0.1290E+00
     17.749  0.1219E-04 -0.1948E-03  0.1295E+00  0.1290E+00
     17.865  0.1318E-05  0.2393E-02  0.1295E+00  0.1293E+00
     17.982  0.1112E-08  0.2066E-02  0.1295E+00  0.1295E+00
     18.098  0.4185E-13 -0.1684E-03  0.1295E+00  0.1295E+00
     18.215  0.0000E+00  0.1238E-04  0.1295E+00  0.1295E+00
     18.331  0.0000E+00  0.7327E-07  0.1295E+00  0.1295E+00
     18.448  0.0000E+00  0.1386E-10  0.1295E+00  0.1295E+00
     18.564  0.0000E+00  0.1323E-15  0.1295E+00  0.1295E+00
     18.680  0.0000E+00  0.0000E+00  0.1295E+00  0.1295E+00
     18.797  0.0000E+00  0.0000E+00  0.1295E+00  0.1295E+00
     18.913  0.0000E+00  0.0000E+00  0.1295E+00  0.1295E+00
     19.030  0.0000E+00  0.0000E+00  0.1295E+00  0.1295E+00
     19.146  0.0000E+00  0.0000E+00  0.1295E+00  0.1295E+00
     19.263  0.0000E+00  0.0000E+00  0.1295E+00  0.1295E+00
     19.379  0.0000E+00  0.0000E+00  0.1295E+00  0.1295E+00
     19.496  0.0000E+00  0.0000E+00  0.1295E+00  0.1295E+00
     19.612  0.0000E+00  0.0000E+00  0.1295E+00  0.1295E+00
     19.728  0.0000E+00  0.0000E+00  0.1295E+00  0.1295E+00
     19.845  0.0000E+00  0.0000E+00  0.1295E+00  0.1295E+00
     19.961  0.0000E+00  0.0000E+00  0.1295E+00  0.1295E+00
     20.078  0.0000E+00  0.0000E+00  0.1295E+00  0.1295E+00
     20.194  0.2299E-28  0.0000E+00  0.1295E+00  0.1295E+00
     20.311  0.4954E-21  0.0000E+00  0.1295E+00  0.1295E+00
     20.427  0.6412E-15  0.0000E+00  0.1295E+00  0.1295E+00
     20.544  0.4688E-10  0.0000E+00  0.1295E+00  0.1295E+00
     20.660  0.1688E-06  0.2302E-36  0.1295E+00  0.1295E+00
     20.777  0.1665E-04  0.6802E-28  0.1295E+00  0.1295E+00
     20.893 -0.2180E-03  0.1241E-20  0.1295E+00  0.1295E+00
     21.009  0.2731E-02  0.1356E-14  0.1298E+00  0.1295E+00
     21.126  0.1719E-02  0.8330E-10  0.1300E+00  0.1295E+00
     21.242 -0.1374E-03  0.2484E-06  0.1300E+00  0.1295E+00
     21.359  0.1021E-04  0.1838E-04  0.1300E+00  0.1295E+00
     21.475  0.4672E-07 -0.2304E-03  0.1300E+00  0.1295E+00
     21.592  0.7267E-11  0.3030E-02  0.1300E+00  0.1298E+00
     21.708  0.5766E-16  0.1404E-02  0.1300E+00  0.1300E+00
     21.825  0.0000E+00 -0.1082E-03  0.1300E+00  0.1300E+00
     21.941  0.0000E+00  0.8346E-05  0.1300E+00  0.1300E+00
     22.057  0.0000E+00  0.3024E-07  0.1300E+00  0.1300E+00
     22.174  0.0000E+00  0.3916E-11  0.1300E+00  0.1300E+00
     22.290  0.0000E+00  0.2608E-16  0.1300E+00  0.1300E+00
     22.407  0.0000E+00  0.0000E+00  0.1300E+00  0.1300E+00
     22.523  0.0000E+00  0.0000E+00  0.1300E+00  0.1300E+00
     22.640  0.0000E+00  0.0000E+00  0.1300E+00  0.1300E+00
     22.756  0.0000E+00  0.0000E+00  0.1300E+00  0.1300E+00
     22.873  0.0000E+00  0.0000E+00  0.1300E+00  0.1300E+00
     22.989  0.0000E+00  0.0000E+00  0.1300E+00  0.1300E+00
     23.106  0.0000E+00  0.0000E+00  0.1300E+00  0.1300E+00
     23.222  0.0000E+00  0.0000E+00  0.1300E+00  0.1300E+00
     23.338  0.0000E+00  0.0000E+00  0.1300E+00  0.1300E+00
     23.455  0.0000E+00  0.0000E+00  0.1300E+00  0.1300E+00
     23.571  0.0000E+00  0.0000E+00  0.1300E+00  0.1300E+00
     23.688  0.0000E+00  0.0000E+00  0.1300E+00  0.1300E+00
     23.804  0.0000E+00  0.0000E+00  0.1300E+00  0.1300E+00
     23.921  0.0000E+00  0.0000E+00  0.1300E+00  0.1300E+00
     24.037  0.0000E+00  0.0000E+00  0.1300E+00  0.1300E+00
     24.154  0.0000E+00  0.0000E+00  0.1300E+00  0.1300E+00
     24.270  0.0000E+00  0.0000E+00  0.1300E+00  0.1300E+00
     24.387  0.0000E+00  0.0000E+00  0.1300E+00  0.1300E+00
     24.503  0.0000E+00  0.0000E+00  0.1300E+00  0.1300E+00
     24.619  0.0000E+00  0.0000E+00  0.1300E+00  0.1300E+00
     24.736  0.0000E+00  0.0000E+00  0.1300E+00  0.1300E+00
     24.852  0.0000E+00  0.0000E+00  0.1300E+00  0.1300E+00
     24.969  0.0000E+00  0.0000E+00  0.1300E+00  0.1300E+00
     25.085  0.0000E+00  0.0000E+00  0.1300E+00  0.1300E+00
     25.202  0.0000E+00  0.0000E+00  0.1300E+00  0.1300E+00
     25.318  0.0000E+00  0.0000E+00  0.1300E+00  0.1300E+00
     25.435  0.0000E+00  0.0000E+00  0.1300E+00  0.1300E+00
     25.551  0.0000E+00  0.0000E+00  0.1300E+00  0.1300E+00
     25.667  0.0000E+00  0.0000E+00  0.1300E+00  0.1300E+00
     25.784  0.0000E+00  0.0000E+00  0.1300E+00  0.1300E+00
     25.900  0.0000E+00  0.0000E+00  0.1300E+00  0.1300E+00
     26.017  0.0000E+00  0.0000E+00  0.1300E+00  0.1300E+00
     26.133  0.0000E+00  0.0000E+00  0.1300E+00  0.1300E+00
     26.250  0.0000E+00  0.0000E+00  0.1300E+00  0.1300E+00
     26.366  0.0000E+00  0.0000E+00  0.1300E+00  0.1300E+00
     26.483  0.0000E+00  0.0000E+00  0.1300E+00  0.1300E+00
     26.599  0.0000E+00  0.0000E+00  0.1300E+00  0.1300E+00
     26.716  0.0000E+00  0.0000E+00  0.1300E+00  0.1300E+00
     26.832  0.0000E+00  0.0000E+00  0.1300E+00  0.1300E+00
     26.948  0.0000E+00  0.0000E+00  0.1300E+00  0.1300E+00
     27.065  0.0000E+00  0.0000E+00  0.1300E+00  0.1300E+00
     27.181  0.0000E+00  0.0000E+00  0.1300E+00  0.1300E+00
     27.298  0.0000E+00  0.0000E+00  0.1300E+00  0.1300E+00
     27.414  0.0000E+00  0.0000E+00  0.1300E+00  0.1300E+00
     27.531  0.0000E+00  0.0000E+00  0.1300E+00  0.1300E+00
     27.647  0.0000E+00  0.0000E+00  0.1300E+00  0.1300E+00
     27.764  0.0000E+00  0.0000E+00  0.1300E+00  0.1300E+00
     27.880  0.0000E+00  0.0000E+00  0.1300E+00  0.1300E+00
     27.996  0.0000E+00  0.0000E+00  0.1300E+00  0.1300E+00
     28.113  0.0000E+00  0.0000E+00  0.1300E+00  0.1300E+00
     28.229  0.0000E+00  0.0000E+00  0.1300E+00  0.1300E+00
     28.346  0.0000E+00  0.0000E+00  0.1300E+00  0.1300E+00
     28.462  0.0000E+00  0.0000E+00  0.1300E+00  0.1300E+00
     28.579  0.0000E+00  0.0000E+00  0.1300E+00  0.1300E+00
     28.695  0.0000E+00  0.0000E+00  0.1300E+00  0.1300E+00
     28.812  0.0000E+00  0.0000E+00  0.1300E+00  0.1300E+00
     28.928  0.0000E+00  0.0000E+00  0.1300E+00  0.1300E+00
     29.045  0.0000E+00  0.0000E+00  0.1300E+00  0.1300E+00
     29.161  0.0000E+00  0.0000E+00  0.1300E+00  0.1300E+00
     29.277  0.0000E+00  0.0000E+00  0.1300E+00  0.1300E+00
     29.394  0.0000E+00  0.0000E+00  0.1300E+00  0.1300E+00
     29.510  0.0000E+00  0.0000E+00  0.1300E+00  0.1300E+00
     29.627  0.0000E+00  0.0000E+00  0.1300E+00  0.1300E+00
     29.743  0.0000E+00  0.0000E+00  0.1300E+00  0.1300E+00
     29.860  0.0000E+00  0.0000E+00  0.1300E+00  0.1300E+00
     29.976  0.0000E+00  0.0000E+00  0.1300E+00  0.1300E+00
     30.093  0.0000E+00  0.0000E+00  0.1300E+00  0.1300E+00
     30.209  0.0000E+00  0.0000E+00  0.1300E+00  0.1300E+00
     30.326  0.0000E+00  0.0000E+00  0.1300E+00  0.1300E+00
     30.442  0.0000E+00  0.0000E+00  0.1300E+00  0.1300E+00
     30.558  0.0000E+00  0.0000E+00  0.1300E+00  0.1300E+00
