    2    2  100    2
  0.1145315E+02  0.2840000E-09  0.2840000E-09  0.2840000E-09  0.5000000E-15
  1.000000000000000E-004
  CAR 
 Crystal                                 
   16   10   13
 
  0.0000000E+00  0.0000000E+00  0.0000000E+00  0.8000000E-02
   1       -2.552167     -2.399981
   2        1.018947      2.780226
   3        1.018947      2.780226
   4        3.577104      5.409667
   5        3.577104      5.409667
   6        3.577104      5.409667
   7        4.838495      7.481971
   8        4.838495      7.481971
   9        6.027705      8.136180
  10        6.027705      8.136180
  11        6.027705      8.136180
  12       15.971590     16.219023
  13       15.971590     16.219023
 
  0.2000000E+00  0.0000000E+00  0.0000000E+00  0.4800000E-01
   1       -1.735999     -1.576285
   2        1.350278      3.017939
   3        1.370174      3.194873
   4        3.585938      5.392563
   5        3.585938      5.392563
   6        3.801792      5.657284
   7        4.470165      7.010896
   8        4.982603      7.373486
   9        5.422319      7.373486
  10        5.422319      7.653323
  11        5.784507      7.863019
  12       12.120949     12.873408
  13       17.450325     17.861782
 
  0.4000000E+00  0.0000000E+00  0.0000000E+00  0.4800000E-01
   1        0.304235      0.591143
   2        1.674216      2.732015
   3        2.309425      4.320724
   4        3.499548      5.547231
   5        3.776763      5.547231
   6        3.776763      5.785288
   7        4.399603      6.209518
   8        4.410127      6.209518
   9        4.410127      6.318488
  10        5.156938      7.160799
  11        5.477093      8.053419
  12        7.571627      9.248532
  13       20.998579     21.573891
 
  0.2000000E+00  0.2000000E+00  0.0000000E+00  0.9600000E-01
   1       -0.996520     -0.812199
   2        1.553551      3.296322
   3        1.772013      3.470651
   4        3.180529      4.936794
   5        3.464992      5.225006
   6        4.414351      6.325043
   7        4.518919      6.352129
   8        4.636564      6.790117
   9        4.882247      7.153263
  10        4.909472      7.534183
  11        6.121300      8.240525
  12       12.337807     13.170258
  13       14.264688     15.135401
 
  0.4000000E+00  0.2000000E+00  0.0000000E+00  0.1920000E+00
   1        0.661275      1.104734
   2        1.651117      2.883962
   3        2.631394      4.359875
   4        3.076425      4.788239
   5        3.336818      5.019448
   6        3.540510      5.269615
   7        4.453515      6.494922
   8        4.503005      6.729006
   9        5.197332      7.190843
  10        5.390510      7.934427
  11        5.872246      7.951276
  12        8.110333      9.621647
  13       16.328465     17.225444
 
  0.4000000E+00  0.4000000E+00  0.0000000E+00  0.9600000E-01
   1        0.916672      1.919310
   2        1.174810      2.466285
   3        2.579414      4.231340
   4        2.740349      4.396245
   5        3.954511      5.507853
   6        4.710091      5.722239
   7        4.741165      7.044381
   8        5.004586      7.296755
   9        5.250738      7.699431
  10        5.992936      8.088781
  11        6.274913      8.412125
  12        7.847309      9.069918
  13       13.445389     14.720471
 
  0.2000000E+00  0.2000000E+00  0.2000000E+00  0.6400000E-01
   1       -0.284655     -0.079209
   2        1.961443      3.672500
   3        1.961443      3.672500
   4        3.040371      4.765062
   5        3.040371      4.765062
   6        3.527104      5.162616
   7        4.795766      7.031286
   8        4.795766      7.385686
   9        5.121423      7.385686
  10        5.534757      7.583127
  11        5.534757      7.583127
  12       13.600174     14.522892
  13       13.600174     14.522892
 
  0.4000000E+00  0.2000000E+00  0.2000000E+00  0.1920000E+00
   1        1.174968      1.683575
   2        2.063903      3.271831
   3        2.384193      4.090238
   4        2.755078      4.439121
   5        3.082584      4.628499
   6        3.208500      4.842374
   7        4.622200      6.922019
   8        4.776619      7.024035
   9        5.123656      7.687721
  10        5.536187      7.751200
  11        6.362504      8.266223
  12        9.140611     10.562137
  13       16.394768     17.286405
 
  0.4000000E+00  0.4000000E+00  0.2000000E+00  0.1920000E+00
   1        1.506217      2.551696
   2        1.662025      2.985386
   3        2.498888      4.088313
   4        2.575821      4.158055
   5        3.606722      4.808383
   6        3.708814      4.953507
   7        4.890357      7.302282
   8        4.917568      7.427926
   9        5.018667      7.710919
  10        5.392113      7.791766
  11        7.889302      9.468349
  12        9.841590     11.008691
  13       13.576721     14.752989
 
  0.4000000E+00  0.4000000E+00  0.4000000E+00  0.6400000E-01
   1        2.169043      3.588401
   2        2.474006      3.797855
   3        2.474006      3.926901
   4        2.806889      3.926901
   5        2.856533      4.184604
   6        2.856533      4.184604
   7        5.035892      7.683555
   8        5.035892      7.683555
   9        5.069393      7.710386
  10        5.069393      7.710386
  11       10.323892     11.601951
  12       13.149247     14.113712
  13       13.149247     14.113712
