 running on    1 total cores
 distrk:  each k-point on    1 cores,    1 groups
 distr:  one band on    1 cores,    1 groups
 using from now: INCAR     
 vasp.5.3.3 18Dez12 (build Sep  7 2015 22:32:56) complex                        
  
 POSCAR found type information on POSCAR  Fe
 POSCAR found :  1 types and       2 ions
 LDA part: xc-table for Pade appr. of Perdew
 POSCAR, INCAR and KPOINTS ok, starting setup
 WARNING: small aliasing (wrap around) errors must be expected
 FFT: planning ...
 WAVECAR not read
 entering main loop
       N       E                     dE             d eps       ncg     rms          rms(c)
DAV:   1     0.655344527037E+02    0.65534E+02   -0.59525E+03   552   0.117E+03
DAV:   2    -0.162739576588E+02   -0.81808E+02   -0.74997E+02   520   0.248E+02
DAV:   3    -0.184544791231E+02   -0.21805E+01   -0.19387E+01   600   0.550E+01
DAV:   4    -0.184708596138E+02   -0.16380E-01   -0.16362E-01   570   0.430E+00
DAV:   5    -0.184710735062E+02   -0.21389E-03   -0.21388E-03   595   0.439E-01
DAV:   6    -0.184710769144E+02   -0.34081E-05   -0.34084E-05   414   0.575E-02
DAV:   7    -0.184710773946E+02   -0.48023E-06   -0.47970E-06   300   0.301E-02
DAV:   8    -0.184710775339E+02   -0.13933E-06   -0.13897E-06   290   0.140E-02
DAV:   9    -0.184710775779E+02   -0.44013E-07   -0.43875E-07   275   0.909E-03
DAV:  10    -0.184710775917E+02   -0.13807E-07   -0.14195E-07   275   0.447E-03    0.158E+01
RMM:  11    -0.164121208812E+02    0.20590E+01   -0.19265E+01   526   0.689E+01    0.109E+01
RMM:  12    -0.164780015609E+02   -0.65881E-01   -0.13800E+00   522   0.205E+01    0.467E+00
RMM:  13    -0.164935611570E+02   -0.15560E-01   -0.88250E-02   520   0.226E+00    0.211E+00
RMM:  14    -0.164831300629E+02    0.10431E-01   -0.13158E-02   520   0.126E+00    0.102E+00
RMM:  15    -0.164812042322E+02    0.19258E-02   -0.28988E-03   520   0.657E-01    0.361E-01
RMM:  16    -0.164816620218E+02   -0.45779E-03   -0.52475E-04   445   0.295E-01    0.124E-01
RMM:  17    -0.164816411101E+02    0.20912E-04   -0.57020E-05   262   0.120E-01
   1 F= -.16481641E+02 E0= -.16481304E+02  d E =-.134683E-02  mag=     4.3387
 running on    1 total cores
 distrk:  each k-point on    1 cores,    1 groups
 distr:  one band on    1 cores,    1 groups
 using from now: INCAR     
 vasp.5.3.3 18Dez12 (build Sep  7 2015 22:32:56) complex                        
  
 POSCAR found type information on POSCAR  Fe
 POSCAR found :  1 types and       2 ions
 LDA part: xc-table for Pade appr. of Perdew
 POSCAR, INCAR and KPOINTS ok, starting setup
 WARNING: small aliasing (wrap around) errors must be expected
 FFT: planning ...
 WAVECAR not read
 entering main loop
       N       E                     dE             d eps       ncg     rms          rms(c)
DAV:   1     0.627918889401E+02    0.62792E+02   -0.59214E+03   576   0.121E+03
DAV:   2    -0.165487015724E+02   -0.79341E+02   -0.72539E+02   525   0.247E+02
DAV:   3    -0.182290909556E+02   -0.16804E+01   -0.16013E+01   540   0.525E+01
DAV:   4    -0.182399098961E+02   -0.10819E-01   -0.10808E-01   615   0.374E+00
DAV:   5    -0.182400499512E+02   -0.14006E-03   -0.14005E-03   575   0.418E-01
DAV:   6    -0.182400525122E+02   -0.25610E-05   -0.25616E-05   405   0.515E-02
DAV:   7    -0.182400528948E+02   -0.38252E-06   -0.38251E-06   275   0.282E-02
DAV:   8    -0.182400530046E+02   -0.10987E-06   -0.11057E-06   285   0.133E-02
DAV:   9    -0.182400530394E+02   -0.34785E-07   -0.34782E-07   270   0.852E-03
DAV:  10    -0.182400530518E+02   -0.12439E-07   -0.11276E-07   260   0.425E-03    0.183E+01
RMM:  11    -0.159436207103E+02    0.22964E+01   -0.13215E+01   534   0.593E+01    0.729E+00
RMM:  12    -0.161193112131E+02   -0.17569E+00   -0.58907E-01   530   0.128E+01    0.443E+00
RMM:  13    -0.161953813981E+02   -0.76070E-01   -0.80100E-02   520   0.285E+00    0.299E+00
RMM:  14    -0.161835320419E+02    0.11849E-01   -0.44561E-02   520   0.226E+00    0.181E+00
RMM:  15    -0.161845741827E+02   -0.10421E-02   -0.18221E-02   520   0.170E+00    0.127E+00
RMM:  16    -0.161931218075E+02   -0.85476E-02   -0.68766E-03   522   0.979E-01    0.241E-01
RMM:  17    -0.161934575177E+02   -0.33571E-03   -0.16691E-04   324   0.186E-01    0.711E-02
RMM:  18    -0.161934388635E+02    0.18654E-04   -0.11207E-05   240   0.485E-02
   1 F= -.16193439E+02 E0= -.16193263E+02  d E =-.702331E-03  mag=     4.1186
 running on    1 total cores
 distrk:  each k-point on    1 cores,    1 groups
 distr:  one band on    1 cores,    1 groups
 using from now: INCAR     
 vasp.5.3.3 18Dez12 (build Sep  7 2015 22:32:56) complex                        
  
 POSCAR found type information on POSCAR  Fe
 POSCAR found :  1 types and       2 ions
 LDA part: xc-table for Pade appr. of Perdew
 POSCAR, INCAR and KPOINTS ok, starting setup
 WARNING: small aliasing (wrap around) errors must be expected
 FFT: planning ...
 WAVECAR not read
 entering main loop
       N       E                     dE             d eps       ncg     rms          rms(c)
DAV:   1     0.663445464911E+02    0.66345E+02   -0.59209E+03   568   0.130E+03
DAV:   2    -0.141913798992E+02   -0.80536E+02   -0.72484E+02   525   0.262E+02
DAV:   3    -0.156785414577E+02   -0.14872E+01   -0.14338E+01   580   0.504E+01
DAV:   4    -0.156871750637E+02   -0.86336E-02   -0.86302E-02   595   0.344E+00
DAV:   5    -0.156872941851E+02   -0.11912E-03   -0.11912E-03   585   0.407E-01
DAV:   6    -0.156872963051E+02   -0.21200E-05   -0.21211E-05   390   0.520E-02
DAV:   7    -0.156872966343E+02   -0.32923E-06   -0.32959E-06   275   0.257E-02
DAV:   8    -0.156872967280E+02   -0.93688E-07   -0.94679E-07   260   0.127E-02
DAV:   9    -0.156872967603E+02   -0.32237E-07   -0.29760E-07   260   0.769E-03
DAV:  10    -0.156872967696E+02   -0.93760E-08   -0.96627E-08   260   0.404E-03    0.259E+01
RMM:  11    -0.137944136891E+02    0.18929E+01   -0.63755E+00   546   0.430E+01    0.589E+00
RMM:  12    -0.136954583064E+02    0.98955E-01   -0.15041E-01   523   0.437E+00    0.376E+00
RMM:  13    -0.137298628168E+02   -0.34405E-01   -0.37010E-02   525   0.282E+00    0.316E+00
RMM:  14    -0.137518853584E+02   -0.22023E-01   -0.75635E-03   529   0.100E+00    0.226E+00
RMM:  15    -0.137694918599E+02   -0.17607E-01   -0.56790E-02   527   0.286E+00    0.122E+00
RMM:  16    -0.137759496978E+02   -0.64578E-02   -0.30784E-03   528   0.866E-01    0.265E-01
RMM:  17    -0.137748605269E+02    0.10892E-02   -0.60039E-04   475   0.379E-01    0.164E-01
RMM:  18    -0.137745711784E+02    0.28935E-03   -0.11808E-04   262   0.200E-01    0.136E-01
RMM:  19    -0.137745919582E+02   -0.20780E-04   -0.62245E-05   261   0.108E-01
   1 F= -.13774592E+02 E0= -.13774473E+02  d E =-.475111E-03  mag=     2.7564
 running on    1 total cores
 distrk:  each k-point on    1 cores,    1 groups
 distr:  one band on    1 cores,    1 groups
 using from now: INCAR     
 vasp.5.3.3 18Dez12 (build Sep  7 2015 22:32:56) complex                        
  
 POSCAR found type information on POSCAR  Fe
 POSCAR found :  1 types and       2 ions
 LDA part: xc-table for Pade appr. of Perdew
 POSCAR, INCAR and KPOINTS ok, starting setup
 WARNING: small aliasing (wrap around) errors must be expected
 FFT: planning ...
 WAVECAR not read
 entering main loop
       N       E                     dE             d eps       ncg     rms          rms(c)
DAV:   1     0.762642748062E+02    0.76264E+02   -0.61260E+03   576   0.138E+03
DAV:   2    -0.662880582208E+01   -0.82893E+02   -0.75130E+02   525   0.272E+02
DAV:   3    -0.858518994546E+01   -0.19564E+01   -0.18212E+01   565   0.551E+01
DAV:   4    -0.859758743161E+01   -0.12397E-01   -0.12395E-01   600   0.415E+00
DAV:   5    -0.859773056576E+01   -0.14313E-03   -0.14313E-03   590   0.463E-01
DAV:   6    -0.859773315455E+01   -0.25888E-05   -0.25892E-05   420   0.613E-02
DAV:   7    -0.859773351758E+01   -0.36303E-06   -0.36331E-06   290   0.269E-02
DAV:   8    -0.859773362196E+01   -0.10438E-06   -0.10317E-06   290   0.138E-02
DAV:   9    -0.859773365459E+01   -0.32632E-07   -0.32427E-07   265   0.795E-03
DAV:  10    -0.859773366479E+01   -0.10198E-07   -0.10551E-07   260   0.437E-03    0.408E+01
RMM:  11    -0.747741867434E+01    0.11203E+01   -0.14936E+00   546   0.214E+01    0.175E+01
RMM:  12    -0.717243097014E+01    0.30499E+00   -0.13564E-01   543   0.399E+00    0.702E+00
RMM:  13    -0.716230440727E+01    0.10127E-01   -0.96075E-03   531   0.135E+00    0.294E+00
RMM:  14    -0.715464173721E+01    0.76627E-02   -0.42319E-02   545   0.388E+00    0.923E-01
RMM:  15    -0.715604858164E+01   -0.14068E-02   -0.26115E-03   515   0.702E-01    0.243E-01
RMM:  16    -0.715626066902E+01   -0.21209E-03   -0.26675E-04   333   0.251E-01    0.240E-01
RMM:  17    -0.715667468312E+01   -0.41401E-03   -0.46795E-04   390   0.297E-01    0.234E-01
RMM:  18    -0.715658289874E+01    0.91784E-04   -0.18426E-05   246   0.697E-02
   1 F= -.71565829E+01 E0= -.71560814E+01  d E =-.200580E-02  mag=     0.4345
 running on    1 total cores
 distrk:  each k-point on    1 cores,    1 groups
 distr:  one band on    1 cores,    1 groups
 using from now: INCAR     
 vasp.5.3.3 18Dez12 (build Sep  7 2015 22:32:56) complex                        
  
 POSCAR found type information on POSCAR  Fe
 POSCAR found :  1 types and       2 ions
 LDA part: xc-table for Pade appr. of Perdew
 POSCAR, INCAR and KPOINTS ok, starting setup
 WARNING: small aliasing (wrap around) errors must be expected
 FFT: planning ...
 WAVECAR not read
 entering main loop
       N       E                     dE             d eps       ncg     rms          rms(c)
DAV:   1     0.713581235776E+02    0.71358E+02   -0.59204E+03   520   0.115E+03
DAV:   2    -0.162519965639E+02   -0.87610E+02   -0.80993E+02   525   0.256E+02
DAV:   3    -0.183637857912E+02   -0.21118E+01   -0.19538E+01   580   0.543E+01
DAV:   4    -0.183821361352E+02   -0.18350E-01   -0.18310E-01   598   0.445E+00
DAV:   5    -0.183823376355E+02   -0.20150E-03   -0.20150E-03   580   0.425E-01
DAV:   6    -0.183823414961E+02   -0.38606E-05   -0.38597E-05   430   0.558E-02
DAV:   7    -0.183823419005E+02   -0.40443E-06   -0.40458E-06   295   0.257E-02
DAV:   8    -0.183823420137E+02   -0.11321E-06   -0.11281E-06   285   0.122E-02
DAV:   9    -0.183823420493E+02   -0.35629E-07   -0.35432E-07   265   0.768E-03
DAV:  10    -0.183823420602E+02   -0.10839E-07   -0.11403E-07   260   0.391E-03    0.155E+01
RMM:  11    -0.163977657913E+02    0.19846E+01   -0.20489E+01   526   0.706E+01    0.115E+01
RMM:  12    -0.164132727364E+02   -0.15507E-01   -0.15580E+00   522   0.218E+01    0.469E+00
RMM:  13    -0.164361090657E+02   -0.22836E-01   -0.97805E-02   520   0.243E+00    0.222E+00
RMM:  14    -0.164299007829E+02    0.62083E-02   -0.18706E-02   520   0.147E+00    0.106E+00
RMM:  15    -0.164283056491E+02    0.15951E-02   -0.55451E-03   521   0.106E+00    0.422E-01
RMM:  16    -0.164294909198E+02   -0.11853E-02   -0.10562E-03   462   0.523E-01    0.166E-01
RMM:  17    -0.164294606443E+02    0.30276E-04   -0.20576E-04   273   0.241E-01
   1 F= -.16429461E+02 E0= -.16429331E+02  d E =-.517201E-03  mag=     4.6224
 running on    1 total cores
 distrk:  each k-point on    1 cores,    1 groups
 distr:  one band on    1 cores,    1 groups
 using from now: INCAR     
 vasp.5.3.3 18Dez12 (build Sep  7 2015 22:32:56) complex                        
  
 POSCAR found type information on POSCAR  Fe
 POSCAR found :  1 types and       2 ions
 LDA part: xc-table for Pade appr. of Perdew
 POSCAR, INCAR and KPOINTS ok, starting setup
 WARNING: small aliasing (wrap around) errors must be expected
 FFT: planning ...
 WAVECAR not read
 entering main loop
       N       E                     dE             d eps       ncg     rms          rms(c)
DAV:   1     0.711404493764E+02    0.71140E+02   -0.57788E+03   520   0.114E+03
DAV:   2    -0.156589780874E+02   -0.86799E+02   -0.80335E+02   525   0.255E+02
DAV:   3    -0.179073360585E+02   -0.22484E+01   -0.21069E+01   598   0.545E+01
DAV:   4    -0.179324607094E+02   -0.25125E-01   -0.24802E-01   580   0.511E+00
DAV:   5    -0.179328135189E+02   -0.35281E-03   -0.35174E-03   570   0.505E-01
DAV:   6    -0.179328208488E+02   -0.73298E-05   -0.73303E-05   480   0.690E-02
DAV:   7    -0.179328213111E+02   -0.46228E-06   -0.46162E-06   290   0.234E-02
DAV:   8    -0.179328214271E+02   -0.11607E-06   -0.11683E-06   275   0.112E-02
DAV:   9    -0.179328214663E+02   -0.39159E-07   -0.38147E-07   265   0.685E-03
DAV:  10    -0.179328214791E+02   -0.12810E-07   -0.13003E-07   260   0.363E-03    0.148E+01
RMM:  11    -0.162387800343E+02    0.16940E+01   -0.23746E+01   523   0.745E+01    0.140E+01
RMM:  12    -0.160893482940E+02    0.14943E+00   -0.22982E+00   521   0.261E+01    0.491E+00
RMM:  13    -0.161637847435E+02   -0.74436E-01   -0.13320E-01   520   0.280E+00    0.293E+00
RMM:  14    -0.161933630237E+02   -0.29578E-01   -0.68349E-02   520   0.239E+00    0.183E+00
RMM:  15    -0.161950030685E+02   -0.16400E-02   -0.22221E-02   520   0.127E+00    0.140E+00
RMM:  16    -0.161890424511E+02    0.59606E-02   -0.38924E-03   446   0.416E-01    0.201E+00
RMM:  17    -0.162040535409E+02   -0.15011E-01   -0.17839E-02   519   0.131E+00    0.496E-01
RMM:  18    -0.162051429151E+02   -0.10894E-02   -0.38793E-04   345   0.184E-01    0.338E-01
RMM:  19    -0.162056725454E+02   -0.52963E-03   -0.19131E-04   304   0.148E-01    0.115E-01
RMM:  20    -0.162057368956E+02   -0.64350E-04   -0.60446E-05   262   0.763E-02
   1 F= -.16205737E+02 E0= -.16205760E+02  d E =0.927526E-04  mag=     5.4897
 running on    1 total cores
 distrk:  each k-point on    1 cores,    1 groups
 distr:  one band on    1 cores,    1 groups
 using from now: INCAR     
 vasp.5.3.3 18Dez12 (build Sep  7 2015 22:32:56) complex                        
  
 POSCAR found type information on POSCAR  Fe
 POSCAR found :  1 types and       2 ions
 LDA part: xc-table for Pade appr. of Perdew
 POSCAR, INCAR and KPOINTS ok, starting setup
 WARNING: small aliasing (wrap around) errors must be expected
 FFT: planning ...
 WAVECAR not read
 entering main loop
       N       E                     dE             d eps       ncg     rms          rms(c)
DAV:   1     0.694545166277E+02    0.69455E+02   -0.56483E+03   520   0.105E+03
DAV:   2    -0.139055271432E+02   -0.83360E+02   -0.76263E+02   525   0.245E+02
DAV:   3    -0.164245775864E+02   -0.25191E+01   -0.22879E+01   598   0.525E+01
DAV:   4    -0.164985204915E+02   -0.73943E-01   -0.70977E-01   553   0.762E+00
DAV:   5    -0.164992494063E+02   -0.72891E-03   -0.72838E-03   630   0.688E-01
DAV:   6    -0.164992658512E+02   -0.16445E-04   -0.16445E-04   476   0.916E-02
DAV:   7    -0.164992666014E+02   -0.75018E-06   -0.75059E-06   320   0.260E-02
DAV:   8    -0.164992667765E+02   -0.17513E-06   -0.17521E-06   285   0.132E-02
DAV:   9    -0.164992668386E+02   -0.62111E-07   -0.61760E-07   290   0.759E-03
DAV:  10    -0.164992668623E+02   -0.23683E-07   -0.23366E-07   275   0.446E-03    0.153E+01
RMM:  11    -0.159134174018E+02    0.58585E+00   -0.29996E+01   522   0.808E+01    0.177E+01
RMM:  12    -0.151872785903E+02    0.72614E+00   -0.37679E+00   520   0.329E+01    0.607E+00
RMM:  13    -0.153643669819E+02   -0.17709E+00   -0.31028E-01   520   0.478E+00    0.244E+00
RMM:  14    -0.153618986050E+02    0.24684E-02   -0.77208E-02   521   0.196E+00    0.137E+00
RMM:  15    -0.153575178339E+02    0.43808E-02   -0.37753E-02   520   0.230E+00    0.805E-01
RMM:  16    -0.153646533783E+02   -0.71355E-02   -0.27513E-03   513   0.734E-01    0.109E-01
RMM:  17    -0.153646477438E+02    0.56345E-05   -0.77023E-04   407   0.381E-01
   1 F= -.15364648E+02 E0= -.15365035E+02  d E =0.155019E-02  mag=     5.4817
 running on    1 total cores
 distrk:  each k-point on    1 cores,    1 groups
 distr:  one band on    1 cores,    1 groups
 using from now: INCAR     
 vasp.5.3.3 18Dez12 (build Sep  7 2015 22:32:56) complex                        
  
 POSCAR found type information on POSCAR  Fe
 POSCAR found :  1 types and       2 ions
 LDA part: xc-table for Pade appr. of Perdew
 POSCAR, INCAR and KPOINTS ok, starting setup
 WARNING: small aliasing (wrap around) errors must be expected
 FFT: planning ...
 WAVECAR not read
 entering main loop
       N       E                     dE             d eps       ncg     rms          rms(c)
DAV:   1     0.682401595213E+02    0.68240E+02   -0.57135E+03   520   0.101E+03
DAV:   2    -0.119010502244E+02   -0.80141E+02   -0.73526E+02   520   0.238E+02
DAV:   3    -0.146873426673E+02   -0.27863E+01   -0.25010E+01   623   0.512E+01
DAV:   4    -0.147587180701E+02   -0.71375E-01   -0.70376E-01   540   0.832E+00
DAV:   5    -0.147600332559E+02   -0.13152E-02   -0.13104E-02   641   0.851E-01
DAV:   6    -0.147600639847E+02   -0.30729E-04   -0.30729E-04   516   0.119E-01
DAV:   7    -0.147600650085E+02   -0.10238E-05   -0.10230E-05   315   0.242E-02
DAV:   8    -0.147600652525E+02   -0.24398E-06   -0.24420E-06   300   0.129E-02
DAV:   9    -0.147600653431E+02   -0.90561E-07   -0.90589E-07   290   0.742E-03
DAV:  10    -0.147600653780E+02   -0.34967E-07   -0.35334E-07   265   0.464E-03    0.168E+01
RMM:  11    -0.154246318242E+02   -0.66457E+00   -0.33529E+01   520   0.830E+01    0.197E+01
RMM:  12    -0.140654396776E+02    0.13592E+01   -0.46331E+00   520   0.361E+01    0.565E+00
RMM:  13    -0.141925092020E+02   -0.12707E+00   -0.35770E-01   527   0.538E+00    0.217E+00
RMM:  14    -0.141910183713E+02    0.14908E-02   -0.97946E-02   524   0.240E+00    0.107E+00
RMM:  15    -0.141908004081E+02    0.21796E-03   -0.14454E-02   522   0.133E+00    0.557E-01
RMM:  16    -0.141901857010E+02    0.61471E-03   -0.56106E-03   524   0.740E-01    0.524E-01
RMM:  17    -0.141912475035E+02   -0.10618E-02   -0.22069E-04   360   0.154E-01    0.179E-01
RMM:  18    -0.141912678702E+02   -0.20367E-04   -0.22197E-04   290   0.204E-01
   1 F= -.14191268E+02 E0= -.14191899E+02  d E =0.252523E-02  mag=     5.5656
 running on    1 total cores
 distrk:  each k-point on    1 cores,    1 groups
 distr:  one band on    1 cores,    1 groups
 using from now: INCAR     
 vasp.5.3.3 18Dez12 (build Sep  7 2015 22:32:56) complex                        
  
 POSCAR found type information on POSCAR  Fe
 POSCAR found :  1 types and       2 ions
 LDA part: xc-table for Pade appr. of Perdew
 POSCAR, INCAR and KPOINTS ok, starting setup
 WARNING: small aliasing (wrap around) errors must be expected
 FFT: planning ...
 WAVECAR not read
 entering main loop
       N       E                     dE             d eps       ncg     rms          rms(c)
DAV:   1     0.679190821649E+02    0.67919E+02   -0.59411E+03   552   0.121E+03
DAV:   2    -0.164145805669E+02   -0.84334E+02   -0.77284E+02   520   0.256E+02
DAV:   3    -0.185095304232E+02   -0.20949E+01   -0.18926E+01   585   0.566E+01
DAV:   4    -0.185253443970E+02   -0.15814E-01   -0.15789E-01   585   0.430E+00
DAV:   5    -0.185255147721E+02   -0.17038E-03   -0.17037E-03   570   0.428E-01
DAV:   6    -0.185255177950E+02   -0.30229E-05   -0.30232E-05   398   0.550E-02
DAV:   7    -0.185255182594E+02   -0.46444E-06   -0.46445E-06   295   0.301E-02
DAV:   8    -0.185255183946E+02   -0.13516E-06   -0.13503E-06   280   0.140E-02
DAV:   9    -0.185255184373E+02   -0.42695E-07   -0.42584E-07   270   0.915E-03
DAV:  10    -0.185255184514E+02   -0.14096E-07   -0.13798E-07   260   0.449E-03    0.166E+01
RMM:  11    -0.163482383707E+02    0.21773E+01   -0.16850E+01   528   0.654E+01    0.905E+00
RMM:  12    -0.164808613328E+02   -0.13262E+00   -0.99126E-01   525   0.173E+01    0.465E+00
RMM:  13    -0.165140718278E+02   -0.33210E-01   -0.83064E-02   520   0.243E+00    0.230E+00
RMM:  14    -0.165015152740E+02    0.12557E-01   -0.11408E-02   522   0.116E+00    0.123E+00
RMM:  15    -0.164914333534E+02    0.10082E-01   -0.11487E-02   514   0.106E+00    0.115E+00
RMM:  16    -0.165012677524E+02   -0.98344E-02   -0.33825E-03   512   0.582E-01    0.597E-02
RMM:  17    -0.165012821852E+02   -0.14433E-04   -0.88243E-05   270   0.953E-02
   1 F= -.16501282E+02 E0= -.16500978E+02  d E =-.121522E-02  mag=     4.1921
 running on    1 total cores
 distrk:  each k-point on    1 cores,    1 groups
 distr:  one band on    1 cores,    1 groups
 using from now: INCAR     
 vasp.5.3.3 18Dez12 (build Sep  7 2015 22:32:56) complex                        
  
 POSCAR found type information on POSCAR  Fe
 POSCAR found :  1 types and       2 ions
 LDA part: xc-table for Pade appr. of Perdew
 POSCAR, INCAR and KPOINTS ok, starting setup
 WARNING: small aliasing (wrap around) errors must be expected
 FFT: planning ...
 WAVECAR not read
 entering main loop
       N       E                     dE             d eps       ncg     rms          rms(c)
DAV:   1     0.701550560585E+02    0.70155E+02   -0.57315E+03   544   0.115E+03
DAV:   2    -0.163696362016E+02   -0.86525E+02   -0.78590E+02   520   0.256E+02
DAV:   3    -0.184927895906E+02   -0.21232E+01   -0.19817E+01   565   0.567E+01
DAV:   4    -0.185271041940E+02   -0.34315E-01   -0.23132E-01   575   0.477E+00
DAV:   5    -0.185275464515E+02   -0.44226E-03   -0.44223E-03   605   0.510E-01
DAV:   6    -0.185275501948E+02   -0.37433E-05   -0.37428E-05   402   0.578E-02
DAV:   7    -0.185275505949E+02   -0.40011E-06   -0.39985E-06   305   0.273E-02
DAV:   8    -0.185275507068E+02   -0.11196E-06   -0.11244E-06   290   0.128E-02
DAV:   9    -0.185275507425E+02   -0.35697E-07   -0.35532E-07   270   0.815E-03
DAV:  10    -0.185275507550E+02   -0.12461E-07   -0.11575E-07   260   0.409E-03    0.163E+01
RMM:  11    -0.163825585043E+02    0.21450E+01   -0.17585E+01   527   0.665E+01    0.975E+00
RMM:  12    -0.164999037743E+02   -0.11735E+00   -0.11396E+00   524   0.187E+01    0.475E+00
RMM:  13    -0.165218607580E+02   -0.21957E-01   -0.98277E-02   520   0.247E+00    0.220E+00
RMM:  14    -0.165126894443E+02    0.91713E-02   -0.67641E-03   522   0.880E-01    0.113E+00
RMM:  15    -0.165091868000E+02    0.35026E-02   -0.37926E-03   487   0.512E-01    0.245E-01
RMM:  16    -0.165099233352E+02   -0.73654E-03   -0.56651E-04   401   0.242E-01    0.564E-02
RMM:  17    -0.165099274900E+02   -0.41548E-05   -0.31453E-05   257   0.850E-02
   1 F= -.16509927E+02 E0= -.16509753E+02  d E =-.697879E-03  mag=     4.1814
 running on    1 total cores
 distrk:  each k-point on    1 cores,    1 groups
 distr:  one band on    1 cores,    1 groups
 using from now: INCAR     
 vasp.5.3.3 18Dez12 (build Sep  7 2015 22:32:56) complex                        
  
 POSCAR found :  0 types and       0 ions
forrtl: severe (174): SIGSEGV, segmentation fault occurred
Image              PC                Routine            Line        Source             
vasp               0000000003E3FF51  Unknown               Unknown  Unknown
vasp               0000000003E3E6A7  Unknown               Unknown  Unknown
vasp               0000000003DD7E44  Unknown               Unknown  Unknown
vasp               0000000003DD7C56  Unknown               Unknown  Unknown
vasp               0000000003D8487F  Unknown               Unknown  Unknown
vasp               0000000003D8A5FD  Unknown               Unknown  Unknown
libpthread.so.0    00002AFE6200B340  Unknown               Unknown  Unknown
vasp               0000000000546AD2  Unknown               Unknown  Unknown
vasp               00000000004098FF  Unknown               Unknown  Unknown
vasp               000000000040481E  Unknown               Unknown  Unknown
libc.so.6          00002AFE62F9DEC5  Unknown               Unknown  Unknown
vasp               0000000000404729  Unknown               Unknown  Unknown
 running on    1 total cores
 distrk:  each k-point on    1 cores,    1 groups
 distr:  one band on    1 cores,    1 groups
 using from now: INCAR     
 vasp.5.3.3 18Dez12 (build Sep  7 2015 22:32:56) complex                        
  
 POSCAR found type information on POSCAR  Fe
 POSCAR found :  1 types and       2 ions
 LDA part: xc-table for Pade appr. of Perdew
 POSCAR, INCAR and KPOINTS ok, starting setup
 WARNING: small aliasing (wrap around) errors must be expected
 FFT: planning ...
 WAVECAR not read
 entering main loop
       N       E                     dE             d eps       ncg     rms          rms(c)
DAV:   1     0.679190821649E+02    0.67919E+02   -0.59411E+03   552   0.121E+03
DAV:   2    -0.164145805669E+02   -0.84334E+02   -0.77284E+02   520   0.256E+02
DAV:   3    -0.185095304232E+02   -0.20949E+01   -0.18926E+01   585   0.566E+01
DAV:   4    -0.185253443970E+02   -0.15814E-01   -0.15789E-01   585   0.430E+00
DAV:   5    -0.185255147721E+02   -0.17038E-03   -0.17037E-03   570   0.428E-01
DAV:   6    -0.185255177950E+02   -0.30229E-05   -0.30232E-05   398   0.550E-02
DAV:   7    -0.185255182594E+02   -0.46444E-06   -0.46445E-06   295   0.301E-02
DAV:   8    -0.185255183946E+02   -0.13516E-06   -0.13503E-06   280   0.140E-02
DAV:   9    -0.185255184373E+02   -0.42695E-07   -0.42584E-07   270   0.915E-03
DAV:  10    -0.185255184514E+02   -0.14096E-07   -0.13798E-07   260   0.449E-03    0.166E+01
RMM:  11    -0.163482383707E+02    0.21773E+01   -0.16850E+01   528   0.654E+01    0.905E+00
RMM:  12    -0.164808613328E+02   -0.13262E+00   -0.99126E-01   525   0.173E+01    0.465E+00
RMM:  13    -0.165140718278E+02   -0.33210E-01   -0.83064E-02   520   0.243E+00    0.230E+00
RMM:  14    -0.165015152740E+02    0.12557E-01   -0.11408E-02   522   0.116E+00    0.123E+00
RMM:  15    -0.164914333534E+02    0.10082E-01   -0.11487E-02   514   0.106E+00    0.115E+00
RMM:  16    -0.165012677524E+02   -0.98344E-02   -0.33825E-03   512   0.582E-01    0.597E-02
RMM:  17    -0.165012821852E+02   -0.14433E-04   -0.88243E-05   270   0.953E-02
   1 F= -.16501282E+02 E0= -.16500978E+02  d E =-.121522E-02  mag=     4.1921
 running on    1 total cores
 distrk:  each k-point on    1 cores,    1 groups
 distr:  one band on    1 cores,    1 groups
 using from now: INCAR     
 vasp.5.3.3 18Dez12 (build Sep  7 2015 22:32:56) complex                        
  
 POSCAR found type information on POSCAR  Fe
 POSCAR found :  1 types and       2 ions
 LDA part: xc-table for Pade appr. of Perdew
 POSCAR, INCAR and KPOINTS ok, starting setup
 WARNING: small aliasing (wrap around) errors must be expected
 FFT: planning ...
 WAVECAR not read
 entering main loop
       N       E                     dE             d eps       ncg     rms          rms(c)
DAV:   1     0.701550560585E+02    0.70155E+02   -0.57315E+03   544   0.115E+03
DAV:   2    -0.163696362016E+02   -0.86525E+02   -0.78590E+02   520   0.256E+02
DAV:   3    -0.184927895906E+02   -0.21232E+01   -0.19817E+01   565   0.567E+01
DAV:   4    -0.185271041940E+02   -0.34315E-01   -0.23132E-01   575   0.477E+00
DAV:   5    -0.185275464515E+02   -0.44226E-03   -0.44223E-03   605   0.510E-01
DAV:   6    -0.185275501948E+02   -0.37433E-05   -0.37428E-05   402   0.578E-02
DAV:   7    -0.185275505949E+02   -0.40011E-06   -0.39985E-06   305   0.273E-02
DAV:   8    -0.185275507068E+02   -0.11196E-06   -0.11244E-06   290   0.128E-02
DAV:   9    -0.185275507425E+02   -0.35697E-07   -0.35532E-07   270   0.815E-03
DAV:  10    -0.185275507550E+02   -0.12461E-07   -0.11575E-07   260   0.409E-03    0.163E+01
RMM:  11    -0.163825585043E+02    0.21450E+01   -0.17585E+01   527   0.665E+01    0.975E+00
RMM:  12    -0.164999037743E+02   -0.11735E+00   -0.11396E+00   524   0.187E+01    0.475E+00
RMM:  13    -0.165218607580E+02   -0.21957E-01   -0.98277E-02   520   0.247E+00    0.220E+00
RMM:  14    -0.165126894443E+02    0.91713E-02   -0.67641E-03   522   0.880E-01    0.113E+00
RMM:  15    -0.165091868000E+02    0.35026E-02   -0.37926E-03   487   0.512E-01    0.245E-01
RMM:  16    -0.165099233352E+02   -0.73654E-03   -0.56651E-04   401   0.242E-01    0.564E-02
RMM:  17    -0.165099274900E+02   -0.41548E-05   -0.31453E-05   257   0.850E-02
   1 F= -.16509927E+02 E0= -.16509753E+02  d E =-.697879E-03  mag=     4.1814
 running on    1 total cores
 distrk:  each k-point on    1 cores,    1 groups
 distr:  one band on    1 cores,    1 groups
 using from now: INCAR     
 vasp.5.3.3 18Dez12 (build Sep  7 2015 22:32:56) complex                        
  
 POSCAR found type information on POSCAR  Fe
 POSCAR found :  1 types and       2 ions
 LDA part: xc-table for Pade appr. of Perdew
 POSCAR, INCAR and KPOINTS ok, starting setup
 WARNING: small aliasing (wrap around) errors must be expected
 FFT: planning ...
 WAVECAR not read
 entering main loop
       N       E                     dE             d eps       ncg     rms          rms(c)
DAV:   1     0.664748670688E+02    0.66475E+02   -0.59019E+03   552   0.122E+03
DAV:   2    -0.164310633572E+02   -0.82906E+02   -0.75595E+02   520   0.255E+02
DAV:   3    -0.184926056933E+02   -0.20615E+01   -0.19148E+01   575   0.555E+01
DAV:   4    -0.185067956978E+02   -0.14190E-01   -0.14151E-01   590   0.406E+00
DAV:   5    -0.185069539859E+02   -0.15829E-03   -0.15829E-03   595   0.424E-01
DAV:   6    -0.185069568312E+02   -0.28453E-05   -0.28456E-05   390   0.542E-02
DAV:   7    -0.185069572591E+02   -0.42787E-06   -0.42701E-06   285   0.296E-02
DAV:   8    -0.185069573819E+02   -0.12284E-06   -0.12381E-06   290   0.139E-02
DAV:   9    -0.185069574221E+02   -0.40192E-07   -0.39022E-07   275   0.897E-03
DAV:  10    -0.185069574349E+02   -0.12783E-07   -0.12699E-07   275   0.446E-03    0.169E+01
RMM:  11    -0.163004985876E+02    0.22065E+01   -0.16115E+01   529   0.642E+01    0.828E+00
RMM:  12    -0.164421323938E+02   -0.14163E+00   -0.86662E-01   526   0.161E+01    0.462E+00
RMM:  13    -0.164881894387E+02   -0.46057E-01   -0.77788E-02   520   0.253E+00    0.250E+00
RMM:  14    -0.164718301036E+02    0.16359E-01   -0.22106E-02   520   0.157E+00    0.151E+00
RMM:  15    -0.164420675009E+02    0.29763E-01   -0.31724E-02   520   0.189E+00    0.204E+00
RMM:  16    -0.164764767703E+02   -0.34409E-01   -0.97675E-03   520   0.113E+00    0.189E-01
RMM:  17    -0.164768569565E+02   -0.38019E-03   -0.51166E-04   367   0.210E-01    0.383E-02
RMM:  18    -0.164768650568E+02   -0.81003E-05   -0.34609E-05   252   0.663E-02
   1 F= -.16476865E+02 E0= -.16476512E+02  d E =-.141033E-02  mag=     4.1945
 running on    1 total cores
 distrk:  each k-point on    1 cores,    1 groups
 distr:  one band on    1 cores,    1 groups
 using from now: INCAR     
 vasp.5.3.3 18Dez12 (build Sep  7 2015 22:32:56) complex                        
  
 POSCAR found type information on POSCAR  Fe
 POSCAR found :  1 types and       2 ions
 LDA part: xc-table for Pade appr. of Perdew
 POSCAR, INCAR and KPOINTS ok, starting setup
 WARNING: small aliasing (wrap around) errors must be expected
 FFT: planning ...
 WAVECAR not read
 entering main loop
       N       E                     dE             d eps       ncg     rms          rms(c)
DAV:   1     0.730193052526E+02    0.73019E+02   -0.60435E+03   528   0.121E+03
DAV:   2    -0.165737658141E+02   -0.89593E+02   -0.81416E+02   520   0.262E+02
DAV:   3    -0.184580830614E+02   -0.18843E+01   -0.18011E+01   575   0.541E+01
DAV:   4    -0.184705775484E+02   -0.12494E-01   -0.12484E-01   595   0.399E+00
DAV:   5    -0.184707259914E+02   -0.14844E-03   -0.14844E-03   585   0.404E-01
DAV:   6    -0.184707286774E+02   -0.26860E-05   -0.26857E-05   388   0.530E-02
DAV:   7    -0.184707290765E+02   -0.39916E-06   -0.39970E-06   305   0.285E-02
DAV:   8    -0.184707291925E+02   -0.11601E-06   -0.11633E-06   280   0.133E-02
DAV:   9    -0.184707292298E+02   -0.37262E-07   -0.36812E-07   260   0.863E-03
DAV:  10    -0.184707292418E+02   -0.11976E-07   -0.11955E-07   260   0.428E-03    0.172E+01
RMM:  11    -0.162380826570E+02    0.22326E+01   -0.15387E+01   529   0.631E+01    0.769E+00
RMM:  12    -0.163819360986E+02   -0.14385E+00   -0.77836E-01   526   0.152E+01    0.503E+00
RMM:  13    -0.164479084989E+02   -0.65972E-01   -0.96848E-02   520   0.288E+00    0.258E+00
RMM:  14    -0.164321965000E+02    0.15712E-01   -0.18443E-02   520   0.137E+00    0.158E+00
RMM:  15    -0.164078991627E+02    0.24297E-01   -0.25637E-02   520   0.165E+00    0.155E+00
RMM:  16    -0.164348940534E+02   -0.26995E-01   -0.72048E-03   520   0.944E-01    0.284E-01
RMM:  17    -0.164354787474E+02   -0.58469E-03   -0.52150E-04   372   0.223E-01    0.342E-02
RMM:  18    -0.164354750882E+02    0.36592E-05   -0.31891E-05   248   0.592E-02
   1 F= -.16435475E+02 E0= -.16435132E+02  d E =-.137408E-02  mag=     4.1902
 running on    1 total cores
 distrk:  each k-point on    1 cores,    1 groups
 distr:  one band on    1 cores,    1 groups
 using from now: INCAR     
 vasp.5.3.3 18Dez12 (build Sep  7 2015 22:32:56) complex                        
  
 POSCAR found type information on POSCAR  Fe
 POSCAR found :  1 types and       2 ions
 LDA part: xc-table for Pade appr. of Perdew
 POSCAR, INCAR and KPOINTS ok, starting setup
 WARNING: small aliasing (wrap around) errors must be expected
 FFT: planning ...
 WAVECAR not read
 entering main loop
       N       E                     dE             d eps       ncg     rms          rms(c)
DAV:   1     0.663445464911E+02    0.66345E+02   -0.59209E+03   568   0.130E+03
DAV:   2    -0.141913798992E+02   -0.80536E+02   -0.72484E+02   525   0.262E+02
DAV:   3    -0.156785414577E+02   -0.14872E+01   -0.14338E+01   580   0.504E+01
DAV:   4    -0.156871750637E+02   -0.86336E-02   -0.86302E-02   595   0.344E+00
DAV:   5    -0.156872941851E+02   -0.11912E-03   -0.11912E-03   585   0.407E-01
DAV:   6    -0.156872963051E+02   -0.21200E-05   -0.21211E-05   390   0.520E-02
DAV:   7    -0.156872966343E+02   -0.32923E-06   -0.32959E-06   275   0.257E-02
DAV:   8    -0.156872967280E+02   -0.93688E-07   -0.94679E-07   260   0.127E-02
DAV:   9    -0.156872967603E+02   -0.32237E-07   -0.29760E-07   260   0.769E-03
DAV:  10    -0.156872967696E+02   -0.93760E-08   -0.96627E-08   260   0.404E-03    0.259E+01
RMM:  11    -0.137944136891E+02    0.18929E+01   -0.63755E+00   546   0.430E+01    0.589E+00
RMM:  12    -0.136954583064E+02    0.98955E-01   -0.15041E-01   523   0.437E+00    0.376E+00
RMM:  13    -0.137298628168E+02   -0.34405E-01   -0.37010E-02   525   0.282E+00    0.316E+00
RMM:  14    -0.137518853584E+02   -0.22023E-01   -0.75635E-03   529   0.100E+00    0.226E+00
RMM:  15    -0.137694918599E+02   -0.17607E-01   -0.56790E-02   527   0.286E+00    0.122E+00
RMM:  16    -0.137759496978E+02   -0.64578E-02   -0.30784E-03   528   0.866E-01    0.265E-01
RMM:  17    -0.137748605269E+02    0.10892E-02   -0.60039E-04   475   0.379E-01    0.164E-01
RMM:  18    -0.137745711784E+02    0.28935E-03   -0.11808E-04   262   0.200E-01    0.136E-01
RMM:  19    -0.137745919582E+02   -0.20780E-04   -0.62245E-05   261   0.108E-01
   1 F= -.13774592E+02 E0= -.13774473E+02  d E =-.475111E-03  mag=     2.7564
 running on    1 total cores
 distrk:  each k-point on    1 cores,    1 groups
 distr:  one band on    1 cores,    1 groups
 using from now: INCAR     
 vasp.5.3.3 18Dez12 (build Sep  7 2015 22:32:56) complex                        
  
 POSCAR found type information on POSCAR  Fe
 POSCAR found :  1 types and       2 ions
 LDA part: xc-table for Pade appr. of Perdew
 POSCAR, INCAR and KPOINTS ok, starting setup
 WARNING: small aliasing (wrap around) errors must be expected
 FFT: planning ...
 WAVECAR not read
 entering main loop
       N       E                     dE             d eps       ncg     rms          rms(c)
DAV:   1     0.726749256976E+02    0.72675E+02   -0.58458E+03   520   0.119E+03
DAV:   2    -0.162050123911E+02   -0.88880E+02   -0.80866E+02   520   0.259E+02
DAV:   3    -0.184940090307E+02   -0.22890E+01   -0.21105E+01   550   0.573E+01
DAV:   4    -0.185127342297E+02   -0.18725E-01   -0.18652E-01   605   0.469E+00
DAV:   5    -0.185129420644E+02   -0.20783E-03   -0.20783E-03   580   0.443E-01
DAV:   6    -0.185129461674E+02   -0.41030E-05   -0.41030E-05   414   0.588E-02
DAV:   7    -0.185129466040E+02   -0.43655E-06   -0.43769E-06   300   0.281E-02
DAV:   8    -0.185129467231E+02   -0.11916E-06   -0.11928E-06   275   0.131E-02
DAV:   9    -0.185129467611E+02   -0.37968E-07   -0.36868E-07   265   0.827E-03
DAV:  10    -0.185129467718E+02   -0.10683E-07   -0.11807E-07   260   0.414E-03    0.161E+01
RMM:  11    -0.164033127322E+02    0.21096E+01   -0.18318E+01   527   0.676E+01    0.102E+01
RMM:  12    -0.164990618684E+02   -0.95749E-01   -0.12541E+00   523   0.197E+01    0.472E+00
RMM:  13    -0.165172699702E+02   -0.18208E-01   -0.97795E-02   520   0.239E+00    0.215E+00
RMM:  14    -0.165070869970E+02    0.10183E-01   -0.96239E-03   522   0.106E+00    0.109E+00
RMM:  15    -0.165043268934E+02    0.27601E-02   -0.36014E-03   493   0.533E-01    0.294E-01
RMM:  16    -0.165048476475E+02   -0.52075E-03   -0.72971E-04   442   0.300E-01    0.904E-02
RMM:  17    -0.165048609056E+02   -0.13258E-04   -0.56057E-05   254   0.845E-02
   1 F= -.16504861E+02 E0= -.16504651E+02  d E =-.840263E-03  mag=     4.2585
 running on    1 total cores
 distrk:  each k-point on    1 cores,    1 groups
 distr:  one band on    1 cores,    1 groups
 using from now: INCAR     
 vasp.5.3.3 18Dez12 (build Sep  7 2015 22:32:56) complex                        
  
 POSCAR found type information on POSCAR  Fe
 POSCAR found :  1 types and       2 ions
 LDA part: xc-table for Pade appr. of Perdew
 POSCAR, INCAR and KPOINTS ok, starting setup
 WARNING: small aliasing (wrap around) errors must be expected
 FFT: planning ...
 WAVECAR not read
 entering main loop
       N       E                     dE             d eps       ncg     rms          rms(c)
DAV:   1     0.726749256976E+02    0.72675E+02   -0.58458E+03   520   0.119E+03
DAV:   2    -0.162050123911E+02   -0.88880E+02   -0.80866E+02   520   0.259E+02
DAV:   3    -0.184940090307E+02   -0.22890E+01   -0.21105E+01   550   0.573E+01
DAV:   4    -0.185127342297E+02   -0.18725E-01   -0.18652E-01   605   0.469E+00
DAV:   5    -0.185129420644E+02   -0.20783E-03   -0.20783E-03   580   0.443E-01
DAV:   6    -0.185129461674E+02   -0.41030E-05   -0.41030E-05   414   0.588E-02
DAV:   7    -0.185129466040E+02   -0.43655E-06   -0.43769E-06   300   0.281E-02
DAV:   8    -0.185129467231E+02   -0.11916E-06   -0.11928E-06   275   0.131E-02
DAV:   9    -0.185129467611E+02   -0.37968E-07   -0.36868E-07   265   0.827E-03
DAV:  10    -0.185129467718E+02   -0.10683E-07   -0.11807E-07   260   0.414E-03    0.161E+01
RMM:  11    -0.164033127322E+02    0.21096E+01   -0.18318E+01   520   0.676E+01    0.102E+01
RMM:  12    -0.164990649066E+02   -0.95752E-01   -0.12520E+00   520   0.197E+01    0.472E+00
RMM:  13    -0.165172721167E+02   -0.18207E-01   -0.97749E-02   520   0.239E+00    0.215E+00
RMM:  14    -0.165070873395E+02    0.10185E-01   -0.96234E-03   520   0.106E+00    0.109E+00
RMM:  15    -0.165043267382E+02    0.27606E-02   -0.36013E-03   493   0.533E-01    0.294E-01
RMM:  16    -0.165048476443E+02   -0.52091E-03   -0.72956E-04   442   0.300E-01    0.905E-02
RMM:  17    -0.165048609061E+02   -0.13262E-04   -0.56089E-05   259   0.845E-02
   1 F= -.16504861E+02 E0= -.16504651E+02  d E =-.165049E+02  mag=     4.2585
 curvature:   0.00 expect dE= 0.000E+00 dE for cont linesearch  0.000E+00
 trial: gam= 0.00000 g(F)=  0.836E-63 g(S)=  0.187E-01 ort = 0.000E+00 (trialstep = 0.100E+01)
 search vector abs. value=  0.187E-01
 bond charge predicted
       N       E                     dE             d eps       ncg     rms          rms(c)
DAV:   1    -0.167070379459E+02   -0.20219E+00   -0.38275E+00   520   0.369E+01    0.406E+00
RMM:   2    -0.165177508317E+02    0.18929E+00   -0.94818E-01   520   0.149E+01    0.327E+00
RMM:   3    -0.165111708332E+02    0.65800E-02   -0.32461E-02   520   0.301E+00    0.128E+00
RMM:   4    -0.165088771521E+02    0.22937E-02   -0.22221E-03   515   0.809E-01    0.296E-01
RMM:   5    -0.165072796624E+02    0.15975E-02   -0.17537E-03   520   0.680E-01    0.782E-02
RMM:   6    -0.165073006362E+02   -0.20974E-04   -0.13012E-04   282   0.128E-01
   2 F= -.16507301E+02 E0= -.16507056E+02  d E =-.243973E-02  mag=     4.1873
 trial-energy change:   -0.002440  1 .order   -0.000927   -0.018710    0.016856
 step:   0.5879(harm=  0.5261)  dis= 0.00000  next Energy=   -16.510668 (dE=-0.581E-02)
 bond charge predicted
       N       E                     dE             d eps       ncg     rms          rms(c)
DAV:   1    -0.165524835704E+02   -0.45204E-01   -0.66527E-01   520   0.157E+01    0.224E+00
RMM:   2    -0.165156973914E+02    0.36786E-01   -0.28313E-01   520   0.798E+00    0.239E+00
RMM:   3    -0.165121990214E+02    0.34984E-02   -0.19484E-02   520   0.248E+00    0.532E-01
RMM:   4    -0.165113351774E+02    0.86384E-03   -0.22669E-03   520   0.769E-01    0.211E-01
RMM:   5    -0.165110833257E+02    0.25185E-03   -0.16532E-03   518   0.632E-01    0.112E-01
RMM:   6    -0.165110327276E+02    0.50598E-04   -0.68796E-05   267   0.129E-01
   3 F= -.16511033E+02 E0= -.16510871E+02  d E =-.617182E-02  mag=     4.1858
 curvature:  -0.26 expect dE=-0.237E-03 dE for cont linesearch -0.237E-03
 ZBRENT: interpolating
 opt :   0.4814  next Energy=   -16.511253 (dE=-0.639E-02)
 bond charge predicted
       N       E                     dE             d eps       ncg     rms          rms(c)
DAV:   1    -0.165130279380E+02   -0.19446E-02   -0.42400E-02   520   0.395E+00    0.454E-01
RMM:   2    -0.165109427892E+02    0.20851E-02   -0.11976E-02   516   0.165E+00    0.403E-01
RMM:   3    -0.165108407352E+02    0.10205E-03   -0.45846E-04   397   0.373E-01    0.130E-01
RMM:   4    -0.165108102257E+02    0.30510E-04   -0.35309E-05   262   0.102E-01
   4 F= -.16510810E+02 E0= -.16510617E+02  d E =-.594932E-02  mag=     4.1891
 curvature:  -0.24 expect dE=-0.727E-03 dE for cont linesearch -0.727E-03
 ZBRENT: interpolating
 opt :   0.5501  next Energy=   -16.511111 (dE=-0.625E-02)
 bond charge predicted
       N       E                     dE             d eps       ncg     rms          rms(c)
DAV:   1    -0.165118416439E+02   -0.10009E-02   -0.17385E-02   520   0.252E+00    0.254E-01
RMM:   2    -0.165110405018E+02    0.80114E-03   -0.38624E-03   511   0.943E-01    0.202E-01
RMM:   3    -0.165110184857E+02    0.22016E-04   -0.99365E-05   277   0.160E-01    0.878E-02
RMM:   4    -0.165110090595E+02    0.94262E-05   -0.10112E-05   246   0.358E-02
   5 F= -.16511009E+02 E0= -.16510831E+02  d E =-.614815E-02  mag=     4.1870
 curvature:  -0.03 expect dE=-0.549E-06 dE for cont linesearch -0.549E-06
 trial: gam= 0.00000 g(F)=  0.646E-61 g(S)=  0.212E-04 ort =-0.630E-03 (trialstep = 0.910E+00)
 search vector abs. value=  0.212E-04
 reached required accuracy - stopping structural energy minimisation
