       N       E                     dE             d eps       ncg     rms          rms(c)
DAV:   1     0.726749256976E+02    0.72675E+02   -0.58458E+03   520   0.119E+03
DAV:   2    -0.162050123911E+02   -0.88880E+02   -0.80866E+02   520   0.259E+02
DAV:   3    -0.184940090307E+02   -0.22890E+01   -0.21105E+01   550   0.573E+01
DAV:   4    -0.185127342297E+02   -0.18725E-01   -0.18652E-01   605   0.469E+00
DAV:   5    -0.185129420644E+02   -0.20783E-03   -0.20783E-03   580   0.443E-01
DAV:   6    -0.185129461674E+02   -0.41030E-05   -0.41030E-05   414   0.588E-02
DAV:   7    -0.185129466040E+02   -0.43655E-06   -0.43769E-06   300   0.281E-02
DAV:   8    -0.185129467231E+02   -0.11916E-06   -0.11928E-06   275   0.131E-02
DAV:   9    -0.185129467611E+02   -0.37968E-07   -0.36868E-07   265   0.827E-03
DAV:  10    -0.185129467718E+02   -0.10683E-07   -0.11807E-07   260   0.414E-03    0.161E+01
RMM:  11    -0.164033127322E+02    0.21096E+01   -0.18318E+01   520   0.676E+01    0.102E+01
RMM:  12    -0.164990649066E+02   -0.95752E-01   -0.12520E+00   520   0.197E+01    0.472E+00
RMM:  13    -0.165172721167E+02   -0.18207E-01   -0.97749E-02   520   0.239E+00    0.215E+00
RMM:  14    -0.165070873395E+02    0.10185E-01   -0.96234E-03   520   0.106E+00    0.109E+00
RMM:  15    -0.165043267382E+02    0.27606E-02   -0.36013E-03   493   0.533E-01    0.294E-01
RMM:  16    -0.165048476443E+02   -0.52091E-03   -0.72956E-04   442   0.300E-01    0.905E-02
RMM:  17    -0.165048609061E+02   -0.13262E-04   -0.56089E-05   259   0.845E-02
   1 F= -.16504861E+02 E0= -.16504651E+02  d E =-.165049E+02  mag=     4.2585
       N       E                     dE             d eps       ncg     rms          rms(c)
DAV:   1    -0.167070379459E+02   -0.20219E+00   -0.38275E+00   520   0.369E+01    0.406E+00
RMM:   2    -0.165177508317E+02    0.18929E+00   -0.94818E-01   520   0.149E+01    0.327E+00
RMM:   3    -0.165111708332E+02    0.65800E-02   -0.32461E-02   520   0.301E+00    0.128E+00
RMM:   4    -0.165088771521E+02    0.22937E-02   -0.22221E-03   515   0.809E-01    0.296E-01
RMM:   5    -0.165072796624E+02    0.15975E-02   -0.17537E-03   520   0.680E-01    0.782E-02
RMM:   6    -0.165073006362E+02   -0.20974E-04   -0.13012E-04   282   0.128E-01
   2 F= -.16507301E+02 E0= -.16507056E+02  d E =-.243973E-02  mag=     4.1873
       N       E                     dE             d eps       ncg     rms          rms(c)
DAV:   1    -0.165524835704E+02   -0.45204E-01   -0.66527E-01   520   0.157E+01    0.224E+00
RMM:   2    -0.165156973914E+02    0.36786E-01   -0.28313E-01   520   0.798E+00    0.239E+00
RMM:   3    -0.165121990214E+02    0.34984E-02   -0.19484E-02   520   0.248E+00    0.532E-01
RMM:   4    -0.165113351774E+02    0.86384E-03   -0.22669E-03   520   0.769E-01    0.211E-01
RMM:   5    -0.165110833257E+02    0.25185E-03   -0.16532E-03   518   0.632E-01    0.112E-01
RMM:   6    -0.165110327276E+02    0.50598E-04   -0.68796E-05   267   0.129E-01
   3 F= -.16511033E+02 E0= -.16510871E+02  d E =-.617182E-02  mag=     4.1858
       N       E                     dE             d eps       ncg     rms          rms(c)
DAV:   1    -0.165130279380E+02   -0.19446E-02   -0.42400E-02   520   0.395E+00    0.454E-01
RMM:   2    -0.165109427892E+02    0.20851E-02   -0.11976E-02   516   0.165E+00    0.403E-01
RMM:   3    -0.165108407352E+02    0.10205E-03   -0.45846E-04   397   0.373E-01    0.130E-01
RMM:   4    -0.165108102257E+02    0.30510E-04   -0.35309E-05   262   0.102E-01
   4 F= -.16510810E+02 E0= -.16510617E+02  d E =-.594932E-02  mag=     4.1891
       N       E                     dE             d eps       ncg     rms          rms(c)
DAV:   1    -0.165118416439E+02   -0.10009E-02   -0.17385E-02   520   0.252E+00    0.254E-01
RMM:   2    -0.165110405018E+02    0.80114E-03   -0.38624E-03   511   0.943E-01    0.202E-01
RMM:   3    -0.165110184857E+02    0.22016E-04   -0.99365E-05   277   0.160E-01    0.878E-02
RMM:   4    -0.165110090595E+02    0.94262E-05   -0.10112E-05   246   0.358E-02
   5 F= -.16511009E+02 E0= -.16510831E+02  d E =-.614815E-02  mag=     4.1870
