 vasp.5.3.3 18Dez12 (build Sep  7 2015 22:32:56) complex                        
  
 executed on             LinuxIFC date 2002.02.26  03:02:04
 running on    1 total cores
 distrk:  each k-point on    1 cores,    1 groups
 distr:  one band on NCORES_PER_BAND=   1 cores,    1 groups


--------------------------------------------------------------------------------------------------------


 INCAR:
 POTCAR:    PAW_PBE Fe 06Sep2000                  
 POTCAR:    PAW_PBE Fe 06Sep2000                  
   VRHFIN =Fe:  d7 s1                                                           
   LEXCH  = PE                                                                  
   EATOM  =   594.3153 eV,   43.6809 Ry                                         
                                                                                
   TITEL  = PAW_PBE Fe 06Sep2000                                                
   LULTRA =        F    use ultrasoft PP ?                                      
   IUNSCR =        1    unscreen: 0-lin 1-nonlin 2-no                           
   RPACOR =    2.000    partial core radius                                     
   POMASS =   55.847; ZVAL   =    8.000    mass and valenz                      
   RCORE  =    2.300    outmost cutoff radius                                   
   RWIGS  =    2.460; RWIGS  =    1.302    wigner-seitz radius (au A)           
   ENMAX  =  267.882; ENMIN  =  200.911 eV                                      
   RCLOC  =    1.701    cutoff for local pot                                    
   LCOR   =        T    correct aug charges                                     
   LPAW   =        T    paw PP                                                  
   EAUG   =  511.368                                                            
   DEXC   =    0.000                                                            
   RMAX   =    2.356    core radius for proj-oper                               
   RAUG   =    1.300    factor for augmentation sphere                          
   RDEP   =    2.442    radius for radial grids                                 
   RDEPT  =    1.890    core radius for aug-charge                              
                                                                                
   Atomic configuration                                                         
    9 entries                                                                   
     n  l   j            E        occ.                                          
     1  0  0.50     -6993.8440   2.0000                                         
     2  0  0.50      -814.6047   2.0000                                         
     2  1  1.50      -693.3689   6.0000                                         
     3  0  0.50       -89.4732   2.0000                                         
     3  1  1.50       -55.6373   6.0000                                         
     3  2  2.50        -3.8151   7.0000                                         
     4  0  0.50        -4.2551   1.0000                                         
     4  1  1.50        -3.4015   0.0000                                         
     4  3  2.50        -1.3606   0.0000                                         
   Description                                                                  
     l       E           TYP  RCUT    TYP  RCUT                                 
     2     -3.8151135     23  2.300                                             
     2     -5.1756961     23  2.300                                             
     0     -4.2550963     23  2.300                                             
     0      7.2035603     23  2.300                                             
     1     -2.7211652     23  2.300                                             
     1     18.4316424     23  2.300                                             
  local pseudopotential read in
  partial core-charges read in
  partial kinetic energy density read in
  atomic valenz-charges read in
  non local Contribution for L=           2  read in
    real space projection operators read in
  non local Contribution for L=           2  read in
    real space projection operators read in
  non local Contribution for L=           0  read in
    real space projection operators read in
  non local Contribution for L=           0  read in
    real space projection operators read in
  non local Contribution for L=           1  read in
    real space projection operators read in
  non local Contribution for L=           1  read in
    real space projection operators read in
    PAW grid and wavefunctions read in
 
   number of l-projection  operators is LMAX  =           6
   number of lm-projection operators is LMMAX =          18
 
  PAW_PBE Fe 06Sep2000                  :
 energy of atom  1       EATOM= -594.3153
 kinetic energy error for atom=    0.0205 (will be added to EATOM!!)
 
 
 POSCAR: header                                  
  positions in direct lattice
  velocities in direct lattice
  No initial velocities read in
 exchange correlation table for  LEXCH =        8
   RHO(1)=    0.500       N(1)  =     2000
   RHO(2)=  100.500       N(2)  =     4000
 


--------------------------------------------------------------------------------------------------------


 ion  position               nearest neighbor table
   1  0.000  0.000  0.000-   2 2.46   2 2.46   2 2.46   2 2.46   2 2.46   2 2.46   2 2.46   2 2.46

   2  0.500  0.500  0.500-   1 2.46   1 2.46   1 2.46   1 2.46   1 2.46   1 2.46   1 2.46   1 2.46

 
  LATTYP: Found a simple cubic cell.
 ALAT       =     2.8400000000
  
  Lattice vectors:
  
 A1 = (   2.8400000000,   0.0000000000,   0.0000000000)
 A2 = (   0.0000000000,   2.8400000000,   0.0000000000)
 A3 = (   0.0000000000,   0.0000000000,   2.8400000000)


Analysis of symmetry for initial positions (statically):
=====================================================================
 Subroutine PRICEL returns following result:
 
  LATTYP: Found a body centered cubic cell.
 ALAT       =     2.8400000000
  
  Lattice vectors:
  
 A1 = (   1.4200000000,   1.4200000000,   1.4200000000)
 A2 = (   1.4200000000,  -1.4200000000,  -1.4200000000)
 A3 = (  -1.4200000000,   1.4200000000,  -1.4200000000)
 
   2 primitive cells build up your supercell.
 

 Routine SETGRP: Setting up the symmetry group for a 
 simple cubic supercell.


 Subroutine GETGRP returns: Found 48 space group operations
 (whereof 48 operations were pure point group operations)
 out of a pool of 48 trial point group operations.


The static configuration has the point symmetry O_h .


Analysis of symmetry for dynamics (positions and initial velocities):
=====================================================================
 Subroutine PRICEL returns following result:
 
  LATTYP: Found a body centered cubic cell.
 ALAT       =     2.8400000000
  
  Lattice vectors:
  
 A1 = (   1.4200000000,   1.4200000000,   1.4200000000)
 A2 = (   1.4200000000,  -1.4200000000,  -1.4200000000)
 A3 = (  -1.4200000000,   1.4200000000,  -1.4200000000)
 
   2 primitive cells build up your supercell.
 

 Routine SETGRP: Setting up the symmetry group for a 
 simple cubic supercell.


 Subroutine GETGRP returns: Found 48 space group operations
 (whereof 48 operations were pure point group operations)
 out of a pool of 48 trial point group operations.


The dynamic configuration has the point symmetry O_h .


Analysis of magnetic symmetry:
=====================================================================

 Subroutine MAGSYM returns: Found 48 space group operations
 (whereof 48 operations were pure point group operations)
 out of a pool of 48 trial space group operations
 (whereof 48 operations were pure point group operations)
 and found also     2 'primitive' translations


The magnetic configuration has the point symmetry O_h .


 irot  :   1
 --------------------------------------------------------------------
 isymop:   1   0   0
           0   1   0
           0   0   1

 gtrans:     0.0000000     0.0000000     0.0000000

 ptrans:     0.0000000     0.0000000     0.0000000
 rotmap:
 (   1->   1)  (   2->   2) 

 ptrans:     0.5000000     0.5000000     0.5000000
 rotmap:
 (   1->   2)  (   2->   1) 


 irot  :   2
 --------------------------------------------------------------------
 isymop:  -1   0   0
           0  -1   0
           0   0  -1

 gtrans:     0.0000000     0.0000000     0.0000000

 ptrans:     0.0000000     0.0000000     0.0000000
 rotmap:
 (   1->   1)  (   2->   2) 

 ptrans:     0.5000000     0.5000000     0.5000000
 rotmap:
 (   1->   2)  (   2->   1) 


 irot  :   3
 --------------------------------------------------------------------
 isymop:   0   0   1
           1   0   0
           0   1   0

 gtrans:     0.0000000     0.0000000     0.0000000

 ptrans:     0.0000000     0.0000000     0.0000000
 rotmap:
 (   1->   1)  (   2->   2) 

 ptrans:     0.5000000     0.5000000     0.5000000
 rotmap:
 (   1->   2)  (   2->   1) 


 irot  :   4
 --------------------------------------------------------------------
 isymop:   0   0  -1
          -1   0   0
           0  -1   0

 gtrans:     0.0000000     0.0000000     0.0000000

 ptrans:     0.0000000     0.0000000     0.0000000
 rotmap:
 (   1->   1)  (   2->   2) 

 ptrans:     0.5000000     0.5000000     0.5000000
 rotmap:
 (   1->   2)  (   2->   1) 


 irot  :   5
 --------------------------------------------------------------------
 isymop:   0   1   0
           0   0   1
           1   0   0

 gtrans:     0.0000000     0.0000000     0.0000000

 ptrans:     0.0000000     0.0000000     0.0000000
 rotmap:
 (   1->   1)  (   2->   2) 

 ptrans:     0.5000000     0.5000000     0.5000000
 rotmap:
 (   1->   2)  (   2->   1) 


 irot  :   6
 --------------------------------------------------------------------
 isymop:   0  -1   0
           0   0  -1
          -1   0   0

 gtrans:     0.0000000     0.0000000     0.0000000

 ptrans:     0.0000000     0.0000000     0.0000000
 rotmap:
 (   1->   1)  (   2->   2) 

 ptrans:     0.5000000     0.5000000     0.5000000
 rotmap:
 (   1->   2)  (   2->   1) 


 irot  :   7
 --------------------------------------------------------------------
 isymop:   0  -1   0
           1   0   0
           0   0   1

 gtrans:     0.0000000     0.0000000     0.0000000

 ptrans:     0.0000000     0.0000000     0.0000000
 rotmap:
 (   1->   1)  (   2->   2) 

 ptrans:     0.5000000     0.5000000     0.5000000
 rotmap:
 (   1->   2)  (   2->   1) 


 irot  :   8
 --------------------------------------------------------------------
 isymop:   0   1   0
          -1   0   0
           0   0  -1

 gtrans:     0.0000000     0.0000000     0.0000000

 ptrans:     0.0000000     0.0000000     0.0000000
 rotmap:
 (   1->   1)  (   2->   2) 

 ptrans:     0.5000000     0.5000000     0.5000000
 rotmap:
 (   1->   2)  (   2->   1) 


 irot  :   9
 --------------------------------------------------------------------
 isymop:  -1   0   0
           0   0   1
           0   1   0

 gtrans:     0.0000000     0.0000000     0.0000000

 ptrans:     0.0000000     0.0000000     0.0000000
 rotmap:
 (   1->   1)  (   2->   2) 

 ptrans:     0.5000000     0.5000000     0.5000000
 rotmap:
 (   1->   2)  (   2->   1) 


 irot  :  10
 --------------------------------------------------------------------
 isymop:   1   0   0
           0   0  -1
           0  -1   0

 gtrans:     0.0000000     0.0000000     0.0000000

 ptrans:     0.0000000     0.0000000     0.0000000
 rotmap:
 (   1->   1)  (   2->   2) 

 ptrans:     0.5000000     0.5000000     0.5000000
 rotmap:
 (   1->   2)  (   2->   1) 


 irot  :  11
 --------------------------------------------------------------------
 isymop:   0   0  -1
           0   1   0
           1   0   0

 gtrans:     0.0000000     0.0000000     0.0000000

 ptrans:     0.0000000     0.0000000     0.0000000
 rotmap:
 (   1->   1)  (   2->   2) 

 ptrans:     0.5000000     0.5000000     0.5000000
 rotmap:
 (   1->   2)  (   2->   1) 


 irot  :  12
 --------------------------------------------------------------------
 isymop:   0   0   1
           0  -1   0
          -1   0   0

 gtrans:     0.0000000     0.0000000     0.0000000

 ptrans:     0.0000000     0.0000000     0.0000000
 rotmap:
 (   1->   1)  (   2->   2) 

 ptrans:     0.5000000     0.5000000     0.5000000
 rotmap:
 (   1->   2)  (   2->   1) 


 irot  :  13
 --------------------------------------------------------------------
 isymop:  -1   0   0
           0  -1   0
           0   0   1

 gtrans:     0.0000000     0.0000000     0.0000000

 ptrans:     0.0000000     0.0000000     0.0000000
 rotmap:
 (   1->   1)  (   2->   2) 

 ptrans:     0.5000000     0.5000000     0.5000000
 rotmap:
 (   1->   2)  (   2->   1) 


 irot  :  14
 --------------------------------------------------------------------
 isymop:   1   0   0
           0   1   0
           0   0  -1

 gtrans:     0.0000000     0.0000000     0.0000000

 ptrans:     0.0000000     0.0000000     0.0000000
 rotmap:
 (   1->   1)  (   2->   2) 

 ptrans:     0.5000000     0.5000000     0.5000000
 rotmap:
 (   1->   2)  (   2->   1) 


 irot  :  15
 --------------------------------------------------------------------
 isymop:   0   0  -1
          -1   0   0
           0   1   0

 gtrans:     0.0000000     0.0000000     0.0000000

 ptrans:     0.0000000     0.0000000     0.0000000
 rotmap:
 (   1->   1)  (   2->   2) 

 ptrans:     0.5000000     0.5000000     0.5000000
 rotmap:
 (   1->   2)  (   2->   1) 


 irot  :  16
 --------------------------------------------------------------------
 isymop:   0   0   1
           1   0   0
           0  -1   0

 gtrans:     0.0000000     0.0000000     0.0000000

 ptrans:     0.0000000     0.0000000     0.0000000
 rotmap:
 (   1->   1)  (   2->   2) 

 ptrans:     0.5000000     0.5000000     0.5000000
 rotmap:
 (   1->   2)  (   2->   1) 


 irot  :  17
 --------------------------------------------------------------------
 isymop:   0  -1   0
           0   0  -1
           1   0   0

 gtrans:     0.0000000     0.0000000     0.0000000

 ptrans:     0.0000000     0.0000000     0.0000000
 rotmap:
 (   1->   1)  (   2->   2) 

 ptrans:     0.5000000     0.5000000     0.5000000
 rotmap:
 (   1->   2)  (   2->   1) 


 irot  :  18
 --------------------------------------------------------------------
 isymop:   0   1   0
           0   0   1
          -1   0   0

 gtrans:     0.0000000     0.0000000     0.0000000

 ptrans:     0.0000000     0.0000000     0.0000000
 rotmap:
 (   1->   1)  (   2->   2) 

 ptrans:     0.5000000     0.5000000     0.5000000
 rotmap:
 (   1->   2)  (   2->   1) 


 irot  :  19
 --------------------------------------------------------------------
 isymop:   0   1   0
          -1   0   0
           0   0   1

 gtrans:     0.0000000     0.0000000     0.0000000

 ptrans:     0.0000000     0.0000000     0.0000000
 rotmap:
 (   1->   1)  (   2->   2) 

 ptrans:     0.5000000     0.5000000     0.5000000
 rotmap:
 (   1->   2)  (   2->   1) 


 irot  :  20
 --------------------------------------------------------------------
 isymop:   0  -1   0
           1   0   0
           0   0  -1

 gtrans:     0.0000000     0.0000000     0.0000000

 ptrans:     0.0000000     0.0000000     0.0000000
 rotmap:
 (   1->   1)  (   2->   2) 

 ptrans:     0.5000000     0.5000000     0.5000000
 rotmap:
 (   1->   2)  (   2->   1) 


 irot  :  21
 --------------------------------------------------------------------
 isymop:   1   0   0
           0   0  -1
           0   1   0

 gtrans:     0.0000000     0.0000000     0.0000000

 ptrans:     0.0000000     0.0000000     0.0000000
 rotmap:
 (   1->   1)  (   2->   2) 

 ptrans:     0.5000000     0.5000000     0.5000000
 rotmap:
 (   1->   2)  (   2->   1) 


 irot  :  22
 --------------------------------------------------------------------
 isymop:  -1   0   0
           0   0   1
           0  -1   0

 gtrans:     0.0000000     0.0000000     0.0000000

 ptrans:     0.0000000     0.0000000     0.0000000
 rotmap:
 (   1->   1)  (   2->   2) 

 ptrans:     0.5000000     0.5000000     0.5000000
 rotmap:
 (   1->   2)  (   2->   1) 


 irot  :  23
 --------------------------------------------------------------------
 isymop:   0   0   1
           0  -1   0
           1   0   0

 gtrans:     0.0000000     0.0000000     0.0000000

 ptrans:     0.0000000     0.0000000     0.0000000
 rotmap:
 (   1->   1)  (   2->   2) 

 ptrans:     0.5000000     0.5000000     0.5000000
 rotmap:
 (   1->   2)  (   2->   1) 


 irot  :  24
 --------------------------------------------------------------------
 isymop:   0   0  -1
           0   1   0
          -1   0   0

 gtrans:     0.0000000     0.0000000     0.0000000

 ptrans:     0.0000000     0.0000000     0.0000000
 rotmap:
 (   1->   1)  (   2->   2) 

 ptrans:     0.5000000     0.5000000     0.5000000
 rotmap:
 (   1->   2)  (   2->   1) 


 irot  :  25
 --------------------------------------------------------------------
 isymop:   0   0   1
          -1   0   0
           0  -1   0

 gtrans:     0.0000000     0.0000000     0.0000000

 ptrans:     0.0000000     0.0000000     0.0000000
 rotmap:
 (   1->   1)  (   2->   2) 

 ptrans:     0.5000000     0.5000000     0.5000000
 rotmap:
 (   1->   2)  (   2->   1) 


 irot  :  26
 --------------------------------------------------------------------
 isymop:   0   0  -1
           1   0   0
           0   1   0

 gtrans:     0.0000000     0.0000000     0.0000000

 ptrans:     0.0000000     0.0000000     0.0000000
 rotmap:
 (   1->   1)  (   2->   2) 

 ptrans:     0.5000000     0.5000000     0.5000000
 rotmap:
 (   1->   2)  (   2->   1) 


 irot  :  27
 --------------------------------------------------------------------
 isymop:   0   1   0
           0   0  -1
          -1   0   0

 gtrans:     0.0000000     0.0000000     0.0000000

 ptrans:     0.0000000     0.0000000     0.0000000
 rotmap:
 (   1->   1)  (   2->   2) 

 ptrans:     0.5000000     0.5000000     0.5000000
 rotmap:
 (   1->   2)  (   2->   1) 


 irot  :  28
 --------------------------------------------------------------------
 isymop:   0  -1   0
           0   0   1
           1   0   0

 gtrans:     0.0000000     0.0000000     0.0000000

 ptrans:     0.0000000     0.0000000     0.0000000
 rotmap:
 (   1->   1)  (   2->   2) 

 ptrans:     0.5000000     0.5000000     0.5000000
 rotmap:
 (   1->   2)  (   2->   1) 


 irot  :  29
 --------------------------------------------------------------------
 isymop:   1   0   0
           0  -1   0
           0   0  -1

 gtrans:     0.0000000     0.0000000     0.0000000

 ptrans:     0.0000000     0.0000000     0.0000000
 rotmap:
 (   1->   1)  (   2->   2) 

 ptrans:     0.5000000     0.5000000     0.5000000
 rotmap:
 (   1->   2)  (   2->   1) 


 irot  :  30
 --------------------------------------------------------------------
 isymop:  -1   0   0
           0   1   0
           0   0   1

 gtrans:     0.0000000     0.0000000     0.0000000

 ptrans:     0.0000000     0.0000000     0.0000000
 rotmap:
 (   1->   1)  (   2->   2) 

 ptrans:     0.5000000     0.5000000     0.5000000
 rotmap:
 (   1->   2)  (   2->   1) 


 irot  :  31
 --------------------------------------------------------------------
 isymop:   0   0   1
           0   1   0
          -1   0   0

 gtrans:     0.0000000     0.0000000     0.0000000

 ptrans:     0.0000000     0.0000000     0.0000000
 rotmap:
 (   1->   1)  (   2->   2) 

 ptrans:     0.5000000     0.5000000     0.5000000
 rotmap:
 (   1->   2)  (   2->   1) 


 irot  :  32
 --------------------------------------------------------------------
 isymop:   0   0  -1
           0  -1   0
           1   0   0

 gtrans:     0.0000000     0.0000000     0.0000000

 ptrans:     0.0000000     0.0000000     0.0000000
 rotmap:
 (   1->   1)  (   2->   2) 

 ptrans:     0.5000000     0.5000000     0.5000000
 rotmap:
 (   1->   2)  (   2->   1) 


 irot  :  33
 --------------------------------------------------------------------
 isymop:   0   1   0
           1   0   0
           0   0  -1

 gtrans:     0.0000000     0.0000000     0.0000000

 ptrans:     0.0000000     0.0000000     0.0000000
 rotmap:
 (   1->   1)  (   2->   2) 

 ptrans:     0.5000000     0.5000000     0.5000000
 rotmap:
 (   1->   2)  (   2->   1) 


 irot  :  34
 --------------------------------------------------------------------
 isymop:   0  -1   0
          -1   0   0
           0   0   1

 gtrans:     0.0000000     0.0000000     0.0000000

 ptrans:     0.0000000     0.0000000     0.0000000
 rotmap:
 (   1->   1)  (   2->   2) 

 ptrans:     0.5000000     0.5000000     0.5000000
 rotmap:
 (   1->   2)  (   2->   1) 


 irot  :  35
 --------------------------------------------------------------------
 isymop:   1   0   0
           0   0   1
           0  -1   0

 gtrans:     0.0000000     0.0000000     0.0000000

 ptrans:     0.0000000     0.0000000     0.0000000
 rotmap:
 (   1->   1)  (   2->   2) 

 ptrans:     0.5000000     0.5000000     0.5000000
 rotmap:
 (   1->   2)  (   2->   1) 


 irot  :  36
 --------------------------------------------------------------------
 isymop:  -1   0   0
           0   0  -1
           0   1   0

 gtrans:     0.0000000     0.0000000     0.0000000

 ptrans:     0.0000000     0.0000000     0.0000000
 rotmap:
 (   1->   1)  (   2->   2) 

 ptrans:     0.5000000     0.5000000     0.5000000
 rotmap:
 (   1->   2)  (   2->   1) 


 irot  :  37
 --------------------------------------------------------------------
 isymop:   0  -1   0
           0   0   1
          -1   0   0

 gtrans:     0.0000000     0.0000000     0.0000000

 ptrans:     0.0000000     0.0000000     0.0000000
 rotmap:
 (   1->   1)  (   2->   2) 

 ptrans:     0.5000000     0.5000000     0.5000000
 rotmap:
 (   1->   2)  (   2->   1) 


 irot  :  38
 --------------------------------------------------------------------
 isymop:   0   1   0
           0   0  -1
           1   0   0

 gtrans:     0.0000000     0.0000000     0.0000000

 ptrans:     0.0000000     0.0000000     0.0000000
 rotmap:
 (   1->   1)  (   2->   2) 

 ptrans:     0.5000000     0.5000000     0.5000000
 rotmap:
 (   1->   2)  (   2->   1) 


 irot  :  39
 --------------------------------------------------------------------
 isymop:  -1   0   0
           0   1   0
           0   0  -1

 gtrans:     0.0000000     0.0000000     0.0000000

 ptrans:     0.0000000     0.0000000     0.0000000
 rotmap:
 (   1->   1)  (   2->   2) 

 ptrans:     0.5000000     0.5000000     0.5000000
 rotmap:
 (   1->   2)  (   2->   1) 


 irot  :  40
 --------------------------------------------------------------------
 isymop:   1   0   0
           0  -1   0
           0   0   1

 gtrans:     0.0000000     0.0000000     0.0000000

 ptrans:     0.0000000     0.0000000     0.0000000
 rotmap:
 (   1->   1)  (   2->   2) 

 ptrans:     0.5000000     0.5000000     0.5000000
 rotmap:
 (   1->   2)  (   2->   1) 


 irot  :  41
 --------------------------------------------------------------------
 isymop:   0   0  -1
           1   0   0
           0  -1   0

 gtrans:     0.0000000     0.0000000     0.0000000

 ptrans:     0.0000000     0.0000000     0.0000000
 rotmap:
 (   1->   1)  (   2->   2) 

 ptrans:     0.5000000     0.5000000     0.5000000
 rotmap:
 (   1->   2)  (   2->   1) 


 irot  :  42
 --------------------------------------------------------------------
 isymop:   0   0   1
          -1   0   0
           0   1   0

 gtrans:     0.0000000     0.0000000     0.0000000

 ptrans:     0.0000000     0.0000000     0.0000000
 rotmap:
 (   1->   1)  (   2->   2) 

 ptrans:     0.5000000     0.5000000     0.5000000
 rotmap:
 (   1->   2)  (   2->   1) 


 irot  :  43
 --------------------------------------------------------------------
 isymop:  -1   0   0
           0   0  -1
           0  -1   0

 gtrans:     0.0000000     0.0000000     0.0000000

 ptrans:     0.0000000     0.0000000     0.0000000
 rotmap:
 (   1->   1)  (   2->   2) 

 ptrans:     0.5000000     0.5000000     0.5000000
 rotmap:
 (   1->   2)  (   2->   1) 


 irot  :  44
 --------------------------------------------------------------------
 isymop:   1   0   0
           0   0   1
           0   1   0

 gtrans:     0.0000000     0.0000000     0.0000000

 ptrans:     0.0000000     0.0000000     0.0000000
 rotmap:
 (   1->   1)  (   2->   2) 

 ptrans:     0.5000000     0.5000000     0.5000000
 rotmap:
 (   1->   2)  (   2->   1) 


 irot  :  45
 --------------------------------------------------------------------
 isymop:   0  -1   0
          -1   0   0
           0   0  -1

 gtrans:     0.0000000     0.0000000     0.0000000

 ptrans:     0.0000000     0.0000000     0.0000000
 rotmap:
 (   1->   1)  (   2->   2) 

 ptrans:     0.5000000     0.5000000     0.5000000
 rotmap:
 (   1->   2)  (   2->   1) 


 irot  :  46
 --------------------------------------------------------------------
 isymop:   0   1   0
           1   0   0
           0   0   1

 gtrans:     0.0000000     0.0000000     0.0000000

 ptrans:     0.0000000     0.0000000     0.0000000
 rotmap:
 (   1->   1)  (   2->   2) 

 ptrans:     0.5000000     0.5000000     0.5000000
 rotmap:
 (   1->   2)  (   2->   1) 


 irot  :  47
 --------------------------------------------------------------------
 isymop:   0   0  -1
           0  -1   0
          -1   0   0

 gtrans:     0.0000000     0.0000000     0.0000000

 ptrans:     0.0000000     0.0000000     0.0000000
 rotmap:
 (   1->   1)  (   2->   2) 

 ptrans:     0.5000000     0.5000000     0.5000000
 rotmap:
 (   1->   2)  (   2->   1) 


 irot  :  48
 --------------------------------------------------------------------
 isymop:   0   0   1
           0   1   0
           1   0   0

 gtrans:     0.0000000     0.0000000     0.0000000

 ptrans:     0.0000000     0.0000000     0.0000000
 rotmap:
 (   1->   1)  (   2->   2) 

 ptrans:     0.5000000     0.5000000     0.5000000
 rotmap:
 (   1->   2)  (   2->   1) 
 
 
 KPOINTS: K-Points                                

Automatic generation of k-mesh.
Space group operators:
 irot       det(A)        alpha          n_x          n_y          n_z        tau_x        tau_y        tau_z
    1     1.000000     0.000000     1.000000     0.000000     0.000000     0.000000     0.000000     0.000000
    2    -1.000000     0.000000     1.000000     0.000000     0.000000     0.000000     0.000000     0.000000
    3     1.000000   120.000000    -0.577350    -0.577350    -0.577350     0.000000     0.000000     0.000000
    4    -1.000000   120.000000    -0.577350    -0.577350    -0.577350     0.000000     0.000000     0.000000
    5     1.000000   120.000000     0.577350     0.577350     0.577350     0.000000     0.000000     0.000000
    6    -1.000000   120.000000     0.577350     0.577350     0.577350     0.000000     0.000000     0.000000
    7     1.000000    90.000000     0.000000     0.000000    -1.000000     0.000000     0.000000     0.000000
    8    -1.000000    90.000000     0.000000     0.000000    -1.000000     0.000000     0.000000     0.000000
    9     1.000000   180.000000     0.000000     0.707107     0.707107     0.000000     0.000000     0.000000
   10    -1.000000   180.000000     0.000000     0.707107     0.707107     0.000000     0.000000     0.000000
   11     1.000000    90.000000     0.000000     1.000000     0.000000     0.000000     0.000000     0.000000
   12    -1.000000    90.000000     0.000000     1.000000     0.000000     0.000000     0.000000     0.000000
   13     1.000000   180.000000     0.000000     0.000000     1.000000     0.000000     0.000000     0.000000
   14    -1.000000   180.000000     0.000000     0.000000     1.000000     0.000000     0.000000     0.000000
   15     1.000000   120.000000    -0.577350     0.577350     0.577350     0.000000     0.000000     0.000000
   16    -1.000000   120.000000    -0.577350     0.577350     0.577350     0.000000     0.000000     0.000000
   17     1.000000   120.000000    -0.577350     0.577350    -0.577350     0.000000     0.000000     0.000000
   18    -1.000000   120.000000    -0.577350     0.577350    -0.577350     0.000000     0.000000     0.000000
   19     1.000000    90.000000     0.000000     0.000000     1.000000     0.000000     0.000000     0.000000
   20    -1.000000    90.000000     0.000000     0.000000     1.000000     0.000000     0.000000     0.000000
   21     1.000000    90.000000    -1.000000     0.000000     0.000000     0.000000     0.000000     0.000000
   22    -1.000000    90.000000    -1.000000     0.000000     0.000000     0.000000     0.000000     0.000000
   23     1.000000   180.000000     0.707107     0.000000     0.707107     0.000000     0.000000     0.000000
   24    -1.000000   180.000000     0.707107     0.000000     0.707107     0.000000     0.000000     0.000000
   25     1.000000   120.000000     0.577350    -0.577350     0.577350     0.000000     0.000000     0.000000
   26    -1.000000   120.000000     0.577350    -0.577350     0.577350     0.000000     0.000000     0.000000
   27     1.000000   120.000000    -0.577350    -0.577350     0.577350     0.000000     0.000000     0.000000
   28    -1.000000   120.000000    -0.577350    -0.577350     0.577350     0.000000     0.000000     0.000000
   29     1.000000   180.000000     1.000000     0.000000     0.000000     0.000000     0.000000     0.000000
   30    -1.000000   180.000000     1.000000     0.000000     0.000000     0.000000     0.000000     0.000000
   31     1.000000    90.000000     0.000000    -1.000000     0.000000     0.000000     0.000000     0.000000
   32    -1.000000    90.000000     0.000000    -1.000000     0.000000     0.000000     0.000000     0.000000
   33     1.000000   180.000000     0.707107     0.707107     0.000000     0.000000     0.000000     0.000000
   34    -1.000000   180.000000     0.707107     0.707107     0.000000     0.000000     0.000000     0.000000
   35     1.000000    90.000000     1.000000     0.000000     0.000000     0.000000     0.000000     0.000000
   36    -1.000000    90.000000     1.000000     0.000000     0.000000     0.000000     0.000000     0.000000
   37     1.000000   120.000000     0.577350    -0.577350    -0.577350     0.000000     0.000000     0.000000
   38    -1.000000   120.000000     0.577350    -0.577350    -0.577350     0.000000     0.000000     0.000000
   39     1.000000   180.000000     0.000000     1.000000     0.000000     0.000000     0.000000     0.000000
   40    -1.000000   180.000000     0.000000     1.000000     0.000000     0.000000     0.000000     0.000000
   41     1.000000   120.000000     0.577350     0.577350    -0.577350     0.000000     0.000000     0.000000
   42    -1.000000   120.000000     0.577350     0.577350    -0.577350     0.000000     0.000000     0.000000
   43     1.000000   180.000000     0.000000    -0.707107     0.707107     0.000000     0.000000     0.000000
   44    -1.000000   180.000000     0.000000    -0.707107     0.707107     0.000000     0.000000     0.000000
   45     1.000000   180.000000     0.707107    -0.707107     0.000000     0.000000     0.000000     0.000000
   46    -1.000000   180.000000     0.707107    -0.707107     0.000000     0.000000     0.000000     0.000000
   47     1.000000   180.000000     0.707107     0.000000    -0.707107     0.000000     0.000000     0.000000
   48    -1.000000   180.000000     0.707107     0.000000    -0.707107     0.000000     0.000000     0.000000
 
 Subroutine IBZKPT returns following result:
 ===========================================
 
 Found     10 irreducible k-points:
 
 Following reciprocal coordinates:
            Coordinates               Weight
  0.000000  0.000000  0.000000      1.000000
  0.200000  0.000000  0.000000      6.000000
  0.400000  0.000000  0.000000      6.000000
  0.200000  0.200000  0.000000     12.000000
  0.400000  0.200000  0.000000     24.000000
  0.400000  0.400000  0.000000     12.000000
  0.200000  0.200000  0.200000      8.000000
  0.400000  0.200000  0.200000     24.000000
  0.400000  0.400000  0.200000     24.000000
  0.400000  0.400000  0.400000      8.000000
 
 Following cartesian coordinates:
            Coordinates               Weight
  0.000000  0.000000  0.000000      1.000000
  0.200000  0.000000  0.000000      6.000000
  0.400000  0.000000  0.000000      6.000000
  0.200000  0.200000  0.000000     12.000000
  0.400000  0.200000  0.000000     24.000000
  0.400000  0.400000  0.000000     12.000000
  0.200000  0.200000  0.200000      8.000000
  0.400000  0.200000  0.200000     24.000000
  0.400000  0.400000  0.200000     24.000000
  0.400000  0.400000  0.400000      8.000000
 


--------------------------------------------------------------------------------------------------------




 Dimension of arrays:
   k-points           NKPTS =     10   k-points in BZ     NKDIM =     10   number of bands    NBANDS=     13
   number of dos      NEDOS =    301   number of ions     NIONS =      2
   non local maximal  LDIM  =      6   non local SUM 2l+1 LMDIM =     18
   total plane-waves  NPLWV =   2744
   max r-space proj   IRMAX =      1   max aug-charges    IRDMAX=   4466
   dimension x,y,z NGX =    14 NGY =   14 NGZ =   14
   dimension x,y,z NGXF=    28 NGYF=   28 NGZF=   28
   support grid    NGXF=    28 NGYF=   28 NGZF=   28
   ions per type =               2
 NGX,Y,Z   is equivalent  to a cutoff of   8.20,  8.20,  8.20 a.u.
 NGXF,Y,Z  is equivalent  to a cutoff of  16.39, 16.39, 16.39 a.u.


 I would recommend the setting:
   dimension x,y,z NGX =    13 NGY =   13 NGZ =   13
 SYSTEM =  Crystal                                 
 POSCAR =  header                                  

 Startparameter for this run:
   NWRITE =      2    write-flag & timer
   PREC   = normal    normal or accurate (medium, high low for compatibility)
   ISTART =      0    job   : 0-new  1-cont  2-samecut
   ICHARG =      2    charge: 1-file 2-atom 10-const
   ISPIN  =      2    spin polarized calculation?
   LNONCOLLINEAR =      F non collinear calculations
   LSORBIT =      F    spin-orbit coupling
   INIWAV =      1    electr: 0-lowe 1-rand  2-diag
   LASPH  =      F    aspherical Exc in radial PAW
   METAGGA=      F    non-selfconsistent MetaGGA calc.

 Electronic Relaxation 1
   ENCUT  =  350.0 eV  25.72 Ry    5.07 a.u.   4.33  4.33  4.33*2*pi/ulx,y,z
   ENINI  =  350.0     initial cutoff
   ENAUG  =  511.4 eV  augmentation charge cutoff
   NELM   =     60;   NELMIN=  4; NELMDL=-10     # of ELM steps 
   EDIFF  = 0.1E-03   stopping-criterion for ELM
   LREAL  =      F    real-space projection
   NLSPLINE    = F    spline interpolate recip. space projectors
   LCOMPAT=      F    compatible to vasp.4.4
   GGA_COMPAT  = T    GGA compatible to vasp.4.4-vasp.4.6
   LMAXPAW     = -100 max onsite density
   LMAXMIX     =    2 max onsite mixed and CHGCAR
   VOSKOWN=      0    Vosko Wilk Nusair interpolation
   ROPT   =    0.00000
 Ionic relaxation
   EDIFFG = -.1E-01   stopping-criterion for IOM
   NSW    =    100    number of steps for IOM
   NBLOCK =      1;   KBLOCK =    100    inner block; outer block 
   IBRION =      2    ionic relax: 0-MD 1-quasi-New 2-CG
   NFREE  =      1    steps in history (QN), initial steepest desc. (CG)
   ISIF   =      3    stress and relaxation
   IWAVPR =     11    prediction:  0-non 1-charg 2-wave 3-comb
   ISYM   =      2    0-nonsym 1-usesym 2-fastsym
   LCORR  =      T    Harris-Foulkes like correction to forces

   POTIM  = 0.5000    time-step for ionic-motion
   TEIN   =    0.0    initial temperature
   TEBEG  =    0.0;   TEEND  =   0.0 temperature during run
   SMASS  =  -3.00    Nose mass-parameter (am)
   estimated Nose-frequenzy (Omega)   =  0.10E-29 period in steps =****** mass=  -0.184E-27a.u.
   SCALEE = 1.0000    scale energy and forces
   NPACO  =    256;   APACO  = 16.0  distance and # of slots for P.C.
   PSTRESS=    0.0 pullay stress

  Mass of Ions in am
   POMASS =  55.85
  Ionic Valenz
   ZVAL   =   8.00
  Atomic Wigner-Seitz radii
   RWIGS  =  -1.00
  virtual crystal weights 
   VCA    =   1.00
   NELECT =      16.0000    total number of electrons
   NUPDOWN=      -1.0000    fix difference up-down

 DOS related values:
   EMIN   =  10.00;   EMAX   =-10.00  energy-range for DOS
   EFERMI =   0.00
   ISMEAR =     2;   SIGMA  =   0.10  broadening in eV -4-tet -1-fermi 0-gaus

 Electronic relaxation 2 (details)
   IALGO  =     68    algorithm
   LDIAG  =      T    sub-space diagonalisation (order eigenvalues)
   LSUBROT=      T    optimize rotation matrix (better conditioning)
   TURBO    =      0    0=normal 1=particle mesh
   IRESTART =      0    0=no restart 2=restart with 2 vectors
   NREBOOT  =      0    no. of reboots
   NMIN     =      0    reboot dimension
   EREF     =   0.00    reference energy to select bands
   IMIX   =      4    mixing-type and parameters
     AMIX     =   0.40;   BMIX     =  1.00
     AMIX_MAG =   1.60;   BMIX_MAG =  1.00
     AMIN     =   0.10
     WC   =   100.;   INIMIX=   1;  MIXPRE=   1;  MAXMIX= -45

 Intra band minimization:
   WEIMIN = 0.0010     energy-eigenvalue tresh-hold
   EBREAK =  0.19E-05  absolut break condition
   DEPER  =   0.30     relativ break condition  

   TIME   =   0.40     timestep for ELM

  volume/ion in A,a.u.               =      11.45        77.29
  Fermi-wavevector in a.u.,A,eV,Ry     =   1.452546  2.744913 28.706785  2.109889
  Thomas-Fermi vector in A             =   2.569915
 
 Write flags
   LWAVE  =      F    write WAVECAR
   LCHARG =      F    write CHGCAR
   LVTOT  =      F    write LOCPOT, total local potential
   LVHAR  =      F    write LOCPOT, Hartree potential only
   LELF   =      F    write electronic localiz. function (ELF)
   LORBIT =      0    0 simple, 1 ext, 2 COOP (PROOUT)


 Dipole corrections
   LMONO  =      F    monopole corrections only (constant potential shift)
   LDIPOL =      F    correct potential (dipole corrections)
   IDIPOL =      0    1-x, 2-y, 3-z, 4-all directions 
   EPSILON=  1.0000000 bulk dielectric constant

 Exchange correlation treatment:
   GGA     =    --    GGA type
   LEXCH   =     8    internal setting for exchange type
   VOSKOWN=      0    Vosko Wilk Nusair interpolation
   LHFCALC =     F    Hartree Fock is set to
   LHFONE  =     F    Hartree Fock one center treatment
   AEXX    =    0.0000 exact exchange contribution

 Linear response parameters
   LEPSILON=     F    determine dielectric tensor
   LRPA    =     F    only Hartree local field effects (RPA)
   LNABLA  =     F    use nabla operator in PAW spheres
   LVEL    =     F    velocity operator in full k-point grid
   LINTERFAST=   F  fast interpolation
   KINTER  =     0    interpolate to denser k-point grid
   CSHIFT  =0.1000    complex shift for real part using Kramers Kronig
   OMEGAMAX=  -1.0    maximum frequency
   DEG_THRESHOLD= 0.2000000E-02 threshold for treating states as degnerate
   RTIME   =    0.100 relaxation time in fs

 Orbital magnetization related:
   ORBITALMAG=     F  switch on orbital magnetization
   LCHIMAG   =     F  perturbation theory with respect to B field
   DQ        =  0.001000  dq finite difference perturbation B field



--------------------------------------------------------------------------------------------------------


 conjugate gradient relaxation of ions
 charge density and potential will be updated during run
 spin polarized calculation
 RMM-DIIS sequential band-by-band and
  variant of blocked Davidson during initial phase
 perform sub-space diagonalisation
    before iterative eigenvector-optimisation
 modified Broyden-mixing scheme, WC =      100.0
 initial mixing is a Kerker type mixing with AMIX =  0.4000 and BMIX =      1.0000
 Hartree-type preconditioning will be used
 using additional bands            5
 reciprocal scheme for non local part
 use partial core corrections
 calculate Harris-corrections to forces 
   (improved forces if not selfconsistent)
 use gradient corrections 
 use of overlap-Matrix (Vanderbilt PP)
 Methfessel and Paxton  Order N= 2 SIGMA  =   0.10


--------------------------------------------------------------------------------------------------------


  energy-cutoff  :      350.00
  volume of cell :       22.91
      direct lattice vectors                 reciprocal lattice vectors
     2.840000000  0.000000000  0.000000000     0.352112676  0.000000000  0.000000000
     0.000000000  2.840000000  0.000000000     0.000000000  0.352112676  0.000000000
     0.000000000  0.000000000  2.840000000     0.000000000  0.000000000  0.352112676

  length of vectors
     2.840000000  2.840000000  2.840000000     0.352112676  0.352112676  0.352112676


 
 k-points in units of 2pi/SCALE and weight: K-Points                                
   0.00000000  0.00000000  0.00000000       0.008
   0.20000000  0.00000000  0.00000000       0.048
   0.40000000  0.00000000  0.00000000       0.048
   0.20000000  0.20000000  0.00000000       0.096
   0.40000000  0.20000000  0.00000000       0.192
   0.40000000  0.40000000  0.00000000       0.096
   0.20000000  0.20000000  0.20000000       0.064
   0.40000000  0.20000000  0.20000000       0.192
   0.40000000  0.40000000  0.20000000       0.192
   0.40000000  0.40000000  0.40000000       0.064
 
 k-points in reciprocal lattice and weights: K-Points                                
   0.00000000  0.00000000  0.00000000       0.008
   0.20000000  0.00000000  0.00000000       0.048
   0.40000000  0.00000000  0.00000000       0.048
   0.20000000  0.20000000  0.00000000       0.096
   0.40000000  0.20000000  0.00000000       0.192
   0.40000000  0.40000000  0.00000000       0.096
   0.20000000  0.20000000  0.20000000       0.064
   0.40000000  0.20000000  0.20000000       0.192
   0.40000000  0.40000000  0.20000000       0.192
   0.40000000  0.40000000  0.40000000       0.064
 
 position of ions in fractional coordinates (direct lattice) 
   0.00000000  0.00000000  0.00000000
   0.50000000  0.50000000  0.50000000
 
 position of ions in cartesian coordinates  (Angst):
   0.00000000  0.00000000  0.00000000
   1.42000000  1.42000000  1.42000000
 


--------------------------------------------------------------------------------------------------------


 k-point  1 :   0.0000 0.0000 0.0000  plane waves:     341
 k-point  2 :   0.2000 0.0000 0.0000  plane waves:     349
 k-point  3 :   0.4000 0.0000 0.0000  plane waves:     344
 k-point  4 :   0.2000 0.2000 0.0000  plane waves:     340
 k-point  5 :   0.4000 0.2000 0.0000  plane waves:     338
 k-point  6 :   0.4000 0.4000 0.0000  plane waves:     346
 k-point  7 :   0.2000 0.2000 0.2000  plane waves:     341
 k-point  8 :   0.4000 0.2000 0.2000  plane waves:     345
 k-point  9 :   0.4000 0.4000 0.2000  plane waves:     341
 k-point 10 :   0.4000 0.4000 0.4000  plane waves:     332

 maximum and minimum number of plane-waves per node :       349      332

 maximum number of plane-waves:       349
 maximum index in each direction: 
   IXMAX=    4   IYMAX=    4   IZMAX=    4
   IXMIN=   -4   IYMIN=   -4   IZMIN=   -4

 WARNING: aliasing errors must be expected set NGX to  18 to avoid them
 WARNING: aliasing errors must be expected set NGY to  18 to avoid them
 WARNING: aliasing errors must be expected set NGZ to  18 to avoid them
 aliasing errors are usually negligible using standard VASP settings
 and one can safely disregard these warnings

 serial   3D FFT for wavefunctions
 parallel 3D FFT for charge:
    minimum data exchange during FFTs selected (reduces bandwidth)


 total amount of memory used by VASP on root node    34870. kBytes
========================================================================

   base      :      30000. kBytes
   nonl-proj :        513. kBytes
   fftplans  :        800. kBytes
   grid      :       1894. kBytes
   one-center:         62. kBytes
   wavefun   :       1601. kBytes
 
 Broyden mixing: mesh for mixing (old mesh)
   NGX =  9   NGY =  9   NGZ =  9
  (NGX  = 28   NGY  = 28   NGZ  = 28)
  gives a total of    729 points

 initial charge density was supplied:
 charge density of overlapping atoms calculated
 number of electron      16.0000000 magnetization       2.0000000
 keeping initial charge density in first step


--------------------------------------------------------------------------------------------------------


 Maximum index for augmentation-charges         4139 (set IRDMAX)


--------------------------------------------------------------------------------------------------------


 First call to EWALD:  gamma=   0.624
 Maximum number of real-space cells 3x 3x 3
 Maximum number of reciprocal cells 3x 3x 3

 FEWALD executed in parallel
    FEWALD:  cpu time    0.00: real time    0.00


----------------------------------------- Iteration    1(   1)  ---------------------------------------


    POTLOK:  cpu time    0.04: real time    0.03
    SETDIJ:  cpu time    0.02: real time    0.02
     EDDAV:  cpu time    0.15: real time    0.15
       DOS:  cpu time    0.00: real time    0.00
    --------------------------------------------
      LOOP:  cpu time    0.20: real time    0.20

 eigenvalue-minimisations  :   520
 total energy-change (2. order) : 0.7267493E+02  (-0.5845770E+03)
 number of electron      16.0000000 magnetization       2.0000000
 augmentation part       16.0000000 magnetization       2.0000000

 Free energy of the ion-electron system (eV)
  ---------------------------------------------------
  alpha Z        PSCENC =       120.68952896
  Ewald energy   TEWEN  =     -1180.93943474
  -1/2 Hartree   DENC   =      -224.31721862
  -exchange  EXHF       =         0.00000000
  -V(xc)+E(xc)   XCENC  =         8.02991585
  PAW double counting   =      1109.45345578    -1124.86183816
  entropy T*S    EENTRO =         0.00033413
  eigenvalues    EBANDS =       176.03052628
  atomic energy  EATOM  =      1188.58965621
  ---------------------------------------------------
  free energy    TOTEN  =        72.67492570 eV

  energy without entropy =       72.67459157  energy(sigma->0) =       72.67484216


--------------------------------------------------------------------------------------------------------




----------------------------------------- Iteration    1(   2)  ---------------------------------------


     EDDAV:  cpu time    0.15: real time    0.15
       DOS:  cpu time    0.00: real time    0.00
    --------------------------------------------
      LOOP:  cpu time    0.15: real time    0.15

 eigenvalue-minimisations  :   520
 total energy-change (2. order) :-0.8887994E+02  (-0.8086574E+02)
 number of electron      16.0000000 magnetization       2.0000000
 augmentation part       16.0000000 magnetization       2.0000000

 Free energy of the ion-electron system (eV)
  ---------------------------------------------------
  alpha Z        PSCENC =       120.68952896
  Ewald energy   TEWEN  =     -1180.93943474
  -1/2 Hartree   DENC   =      -224.31721862
  -exchange  EXHF       =         0.00000000
  -V(xc)+E(xc)   XCENC  =         8.02991585
  PAW double counting   =      1109.45345578    -1124.86183816
  entropy T*S    EENTRO =        -0.00020730
  eigenvalues    EBANDS =        87.15112962
  atomic energy  EATOM  =      1188.58965621
  ---------------------------------------------------
  free energy    TOTEN  =       -16.20501239 eV

  energy without entropy =      -16.20480510  energy(sigma->0) =      -16.20496057


--------------------------------------------------------------------------------------------------------




----------------------------------------- Iteration    1(   3)  ---------------------------------------


     EDDAV:  cpu time    0.16: real time    0.16
       DOS:  cpu time    0.00: real time    0.00
    --------------------------------------------
      LOOP:  cpu time    0.16: real time    0.16

 eigenvalue-minimisations  :   550
 total energy-change (2. order) :-0.2288997E+01  (-0.2110544E+01)
 number of electron      16.0000000 magnetization       2.0000000
 augmentation part       16.0000000 magnetization       2.0000000

 Free energy of the ion-electron system (eV)
  ---------------------------------------------------
  alpha Z        PSCENC =       120.68952896
  Ewald energy   TEWEN  =     -1180.93943474
  -1/2 Hartree   DENC   =      -224.31721862
  -exchange  EXHF       =         0.00000000
  -V(xc)+E(xc)   XCENC  =         8.02991585
  PAW double counting   =      1109.45345578    -1124.86183816
  entropy T*S    EENTRO =         0.00759581
  eigenvalues    EBANDS =        84.85432988
  atomic energy  EATOM  =      1188.58965621
  ---------------------------------------------------
  free energy    TOTEN  =       -18.49400903 eV

  energy without entropy =      -18.50160484  energy(sigma->0) =      -18.49590798


--------------------------------------------------------------------------------------------------------




----------------------------------------- Iteration    1(   4)  ---------------------------------------


     EDDAV:  cpu time    0.17: real time    0.17
       DOS:  cpu time    0.00: real time    0.00
    --------------------------------------------
      LOOP:  cpu time    0.17: real time    0.17

 eigenvalue-minimisations  :   605
 total energy-change (2. order) :-0.1872520E-01  (-0.1865212E-01)
 number of electron      16.0000000 magnetization       2.0000000
 augmentation part       16.0000000 magnetization       2.0000000

 Free energy of the ion-electron system (eV)
  ---------------------------------------------------
  alpha Z        PSCENC =       120.68952896
  Ewald energy   TEWEN  =     -1180.93943474
  -1/2 Hartree   DENC   =      -224.31721862
  -exchange  EXHF       =         0.00000000
  -V(xc)+E(xc)   XCENC  =         8.02991585
  PAW double counting   =      1109.45345578    -1124.86183816
  entropy T*S    EENTRO =         0.00762276
  eigenvalues    EBANDS =        84.83557773
  atomic energy  EATOM  =      1188.58965621
  ---------------------------------------------------
  free energy    TOTEN  =       -18.51273423 eV

  energy without entropy =      -18.52035699  energy(sigma->0) =      -18.51463992


--------------------------------------------------------------------------------------------------------




----------------------------------------- Iteration    1(   5)  ---------------------------------------


     EDDAV:  cpu time    0.17: real time    0.16
       DOS:  cpu time    0.00: real time    0.00
    --------------------------------------------
      LOOP:  cpu time    0.17: real time    0.17

 eigenvalue-minimisations  :   580
 total energy-change (2. order) :-0.2078347E-03  (-0.2078302E-03)
 number of electron      16.0000000 magnetization       2.0000000
 augmentation part       16.0000000 magnetization       2.0000000

 Free energy of the ion-electron system (eV)
  ---------------------------------------------------
  alpha Z        PSCENC =       120.68952896
  Ewald energy   TEWEN  =     -1180.93943474
  -1/2 Hartree   DENC   =      -224.31721862
  -exchange  EXHF       =         0.00000000
  -V(xc)+E(xc)   XCENC  =         8.02991585
  PAW double counting   =      1109.45345578    -1124.86183816
  entropy T*S    EENTRO =         0.00762027
  eigenvalues    EBANDS =        84.83537238
  atomic energy  EATOM  =      1188.58965621
  ---------------------------------------------------
  free energy    TOTEN  =       -18.51294206 eV

  energy without entropy =      -18.52056234  energy(sigma->0) =      -18.51484713


--------------------------------------------------------------------------------------------------------




----------------------------------------- Iteration    1(   6)  ---------------------------------------


     EDDAV:  cpu time    0.13: real time    0.13
       DOS:  cpu time    0.00: real time    0.00
    --------------------------------------------
      LOOP:  cpu time    0.13: real time    0.13

 eigenvalue-minimisations  :   414
 total energy-change (2. order) :-0.4103021E-05  (-0.4103048E-05)
 number of electron      16.0000000 magnetization       2.0000000
 augmentation part       16.0000000 magnetization       2.0000000

 Free energy of the ion-electron system (eV)
  ---------------------------------------------------
  alpha Z        PSCENC =       120.68952896
  Ewald energy   TEWEN  =     -1180.93943474
  -1/2 Hartree   DENC   =      -224.31721862
  -exchange  EXHF       =         0.00000000
  -V(xc)+E(xc)   XCENC  =         8.02991585
  PAW double counting   =      1109.45345578    -1124.86183816
  entropy T*S    EENTRO =         0.00762022
  eigenvalues    EBANDS =        84.83536833
  atomic energy  EATOM  =      1188.58965621
  ---------------------------------------------------
  free energy    TOTEN  =       -18.51294617 eV

  energy without entropy =      -18.52056639  energy(sigma->0) =      -18.51485122


--------------------------------------------------------------------------------------------------------




----------------------------------------- Iteration    1(   7)  ---------------------------------------


     EDDAV:  cpu time    0.10: real time    0.10
       DOS:  cpu time    0.00: real time    0.00
    --------------------------------------------
      LOOP:  cpu time    0.10: real time    0.11

 eigenvalue-minimisations  :   300
 total energy-change (2. order) :-0.4365468E-06  (-0.4376938E-06)
 number of electron      16.0000000 magnetization       2.0000000
 augmentation part       16.0000000 magnetization       2.0000000

 Free energy of the ion-electron system (eV)
  ---------------------------------------------------
  alpha Z        PSCENC =       120.68952896
  Ewald energy   TEWEN  =     -1180.93943474
  -1/2 Hartree   DENC   =      -224.31721862
  -exchange  EXHF       =         0.00000000
  -V(xc)+E(xc)   XCENC  =         8.02991585
  PAW double counting   =      1109.45345578    -1124.86183816
  entropy T*S    EENTRO =         0.00762021
  eigenvalues    EBANDS =        84.83536790
  atomic energy  EATOM  =      1188.58965621
  ---------------------------------------------------
  free energy    TOTEN  =       -18.51294660 eV

  energy without entropy =      -18.52056682  energy(sigma->0) =      -18.51485166


--------------------------------------------------------------------------------------------------------




----------------------------------------- Iteration    1(   8)  ---------------------------------------


     EDDAV:  cpu time    0.10: real time    0.10
       DOS:  cpu time    0.00: real time    0.00
    --------------------------------------------
      LOOP:  cpu time    0.10: real time    0.10

 eigenvalue-minimisations  :   275
 total energy-change (2. order) :-0.1191638E-06  (-0.1192756E-06)
 number of electron      16.0000000 magnetization       2.0000000
 augmentation part       16.0000000 magnetization       2.0000000

 Free energy of the ion-electron system (eV)
  ---------------------------------------------------
  alpha Z        PSCENC =       120.68952896
  Ewald energy   TEWEN  =     -1180.93943474
  -1/2 Hartree   DENC   =      -224.31721862
  -exchange  EXHF       =         0.00000000
  -V(xc)+E(xc)   XCENC  =         8.02991585
  PAW double counting   =      1109.45345578    -1124.86183816
  entropy T*S    EENTRO =         0.00762021
  eigenvalues    EBANDS =        84.83536778
  atomic energy  EATOM  =      1188.58965621
  ---------------------------------------------------
  free energy    TOTEN  =       -18.51294672 eV

  energy without entropy =      -18.52056693  energy(sigma->0) =      -18.51485178


--------------------------------------------------------------------------------------------------------




----------------------------------------- Iteration    1(   9)  ---------------------------------------


     EDDAV:  cpu time    0.10: real time    0.10
       DOS:  cpu time    0.00: real time    0.00
    --------------------------------------------
      LOOP:  cpu time    0.10: real time    0.10

 eigenvalue-minimisations  :   265
 total energy-change (2. order) :-0.3796754E-07  (-0.3686763E-07)
 number of electron      16.0000000 magnetization       2.0000000
 augmentation part       16.0000000 magnetization       2.0000000

 Free energy of the ion-electron system (eV)
  ---------------------------------------------------
  alpha Z        PSCENC =       120.68952896
  Ewald energy   TEWEN  =     -1180.93943474
  -1/2 Hartree   DENC   =      -224.31721862
  -exchange  EXHF       =         0.00000000
  -V(xc)+E(xc)   XCENC  =         8.02991585
  PAW double counting   =      1109.45345578    -1124.86183816
  entropy T*S    EENTRO =         0.00762021
  eigenvalues    EBANDS =        84.83536775
  atomic energy  EATOM  =      1188.58965621
  ---------------------------------------------------
  free energy    TOTEN  =       -18.51294676 eV

  energy without entropy =      -18.52056697  energy(sigma->0) =      -18.51485181


--------------------------------------------------------------------------------------------------------




----------------------------------------- Iteration    1(  10)  ---------------------------------------


     EDDAV:  cpu time    0.10: real time    0.10
       DOS:  cpu time    0.00: real time    0.00
    CHARGE:  cpu time    0.02: real time    0.02
    MIXING:  cpu time    0.00: real time    0.00
    --------------------------------------------
      LOOP:  cpu time    0.12: real time    0.12

 eigenvalue-minimisations  :   260
 total energy-change (2. order) :-0.1068315E-07  (-0.1180718E-07)
 number of electron      16.0000024 magnetization       2.5807695
 augmentation part        7.1572273 magnetization       1.9033818

 Broyden mixing:
  rms(total) = 0.16084E+01    rms(broyden)= 0.16077E+01
  rms(prec ) = 0.37481E+01
  weight for this iteration     100.00

 Free energy of the ion-electron system (eV)
  ---------------------------------------------------
  alpha Z        PSCENC =       120.68952896
  Ewald energy   TEWEN  =     -1180.93943474
  -1/2 Hartree   DENC   =      -224.31721862
  -exchange  EXHF       =         0.00000000
  -V(xc)+E(xc)   XCENC  =         8.02991585
  PAW double counting   =      1109.45345578    -1124.86183816
  entropy T*S    EENTRO =         0.00762021
  eigenvalues    EBANDS =        84.83536774
  atomic energy  EATOM  =      1188.58965621
  ---------------------------------------------------
  free energy    TOTEN  =       -18.51294677 eV

  energy without entropy =      -18.52056698  energy(sigma->0) =      -18.51485182


--------------------------------------------------------------------------------------------------------




----------------------------------------- Iteration    1(  11)  ---------------------------------------


    POTLOK:  cpu time    0.03: real time    0.03
    SETDIJ:  cpu time    0.02: real time    0.02
    EDDIAG:  cpu time    0.03: real time    0.03
  RMM-DIIS:  cpu time    0.12: real time    0.12
    ORTHCH:  cpu time    0.00: real time    0.00
       DOS:  cpu time    0.00: real time    0.00
    CHARGE:  cpu time    0.03: real time    0.02
    MIXING:  cpu time    0.00: real time    0.00
    --------------------------------------------
      LOOP:  cpu time    0.22: real time    0.22

 eigenvalue-minimisations  :   520
 total energy-change (2. order) : 0.2109634E+01  (-0.1831781E+01)
 number of electron      16.0000027 magnetization       3.9315615
 augmentation part        8.6306134 magnetization       3.1042191

 Broyden mixing:
  rms(total) = 0.10192E+01    rms(broyden)= 0.10188E+01
  rms(prec ) = 0.12444E+01
  weight for this iteration     100.00

 eigenvalues of (default mixing * dielectric matrix)
  average eigenvalue GAMMA=   0.5020
  0.5020

 Free energy of the ion-electron system (eV)
  ---------------------------------------------------
  alpha Z        PSCENC =       120.68952896
  Ewald energy   TEWEN  =     -1180.93943474
  -1/2 Hartree   DENC   =      -189.30957736
  -exchange  EXHF       =         0.00000000
  -V(xc)+E(xc)   XCENC  =         6.85723111
  PAW double counting   =      1203.58496754    -1214.21041801
  entropy T*S    EENTRO =        -0.00108885
  eigenvalues    EBANDS =        48.33582240
  atomic energy  EATOM  =      1188.58965621
  ---------------------------------------------------
  free energy    TOTEN  =       -16.40331273 eV

  energy without entropy =      -16.40222388  energy(sigma->0) =      -16.40304052


--------------------------------------------------------------------------------------------------------




----------------------------------------- Iteration    1(  12)  ---------------------------------------


    POTLOK:  cpu time    0.03: real time    0.03
    SETDIJ:  cpu time    0.02: real time    0.02
    EDDIAG:  cpu time    0.03: real time    0.03
  RMM-DIIS:  cpu time    0.12: real time    0.12
    ORTHCH:  cpu time    0.00: real time    0.00
       DOS:  cpu time    0.00: real time    0.00
    CHARGE:  cpu time    0.02: real time    0.02
    MIXING:  cpu time    0.00: real time    0.00
    --------------------------------------------
      LOOP:  cpu time    0.22: real time    0.22

 eigenvalue-minimisations  :   520
 total energy-change (2. order) :-0.9575217E-01  (-0.1251985E+00)
 number of electron      16.0000025 magnetization       4.3529237
 augmentation part        8.2376187 magnetization       3.5524787

 Broyden mixing:
  rms(total) = 0.47177E+00    rms(broyden)= 0.47173E+00
  rms(prec ) = 0.54500E+00
  weight for this iteration     100.00

 eigenvalues of (default mixing * dielectric matrix)
  average eigenvalue GAMMA=   0.8806
  1.1860  0.5752

 Free energy of the ion-electron system (eV)
  ---------------------------------------------------
  alpha Z        PSCENC =       120.68952896
  Ewald energy   TEWEN  =     -1180.93943474
  -1/2 Hartree   DENC   =      -195.03118574
  -exchange  EXHF       =         0.00000000
  -V(xc)+E(xc)   XCENC  =         8.15372847
  PAW double counting   =      1278.02560676    -1292.50176821
  entropy T*S    EENTRO =        -0.00108991
  eigenvalues    EBANDS =        56.51589330
  atomic energy  EATOM  =      1188.58965621
  ---------------------------------------------------
  free energy    TOTEN  =       -16.49906491 eV

  energy without entropy =      -16.49797500  energy(sigma->0) =      -16.49879243


--------------------------------------------------------------------------------------------------------




----------------------------------------- Iteration    1(  13)  ---------------------------------------


    POTLOK:  cpu time    0.03: real time    0.03
    SETDIJ:  cpu time    0.02: real time    0.02
    EDDIAG:  cpu time    0.03: real time    0.03
  RMM-DIIS:  cpu time    0.11: real time    0.11
    ORTHCH:  cpu time    0.00: real time    0.00
       DOS:  cpu time    0.00: real time    0.00
    CHARGE:  cpu time    0.02: real time    0.02
    MIXING:  cpu time    0.00: real time    0.00
    --------------------------------------------
      LOOP:  cpu time    0.22: real time    0.22

 eigenvalue-minimisations  :   520
 total energy-change (2. order) :-0.1820721E-01  (-0.9774857E-02)
 number of electron      16.0000025 magnetization       4.3445738
 augmentation part        8.2624091 magnetization       3.5930626

 Broyden mixing:
  rms(total) = 0.21467E+00    rms(broyden)= 0.21466E+00
  rms(prec ) = 0.26402E+00
  weight for this iteration     100.00

 eigenvalues of (default mixing * dielectric matrix)
  average eigenvalue GAMMA=   0.9333
  1.5117  0.6441  0.6441

 Free energy of the ion-electron system (eV)
  ---------------------------------------------------
  alpha Z        PSCENC =       120.68952896
  Ewald energy   TEWEN  =     -1180.93943474
  -1/2 Hartree   DENC   =      -193.18026751
  -exchange  EXHF       =         0.00000000
  -V(xc)+E(xc)   XCENC  =         8.54127360
  PAW double counting   =      1332.15491801    -1348.15852036
  entropy T*S    EENTRO =        -0.00093459
  eigenvalues    EBANDS =        55.78650829
  atomic energy  EATOM  =      1188.58965621
  ---------------------------------------------------
  free energy    TOTEN  =       -16.51727212 eV

  energy without entropy =      -16.51633753  energy(sigma->0) =      -16.51703847


--------------------------------------------------------------------------------------------------------




----------------------------------------- Iteration    1(  14)  ---------------------------------------


    POTLOK:  cpu time    0.03: real time    0.03
    SETDIJ:  cpu time    0.02: real time    0.02
    EDDIAG:  cpu time    0.03: real time    0.03
  RMM-DIIS:  cpu time    0.12: real time    0.12
    ORTHCH:  cpu time    0.00: real time    0.00
       DOS:  cpu time    0.00: real time    0.00
    CHARGE:  cpu time    0.03: real time    0.02
    MIXING:  cpu time    0.00: real time    0.00
    --------------------------------------------
      LOOP:  cpu time    0.22: real time    0.22

 eigenvalue-minimisations  :   520
 total energy-change (2. order) : 0.1018478E-01  (-0.9623385E-03)
 number of electron      16.0000026 magnetization       4.2165796
 augmentation part        8.2723174 magnetization       3.4811483

 Broyden mixing:
  rms(total) = 0.10928E+00    rms(broyden)= 0.10927E+00
  rms(prec ) = 0.13458E+00
  weight for this iteration     100.00

 eigenvalues of (default mixing * dielectric matrix)
  average eigenvalue GAMMA=   1.3039
  2.6163  1.1877  0.8027  0.6088

 Free energy of the ion-electron system (eV)
  ---------------------------------------------------
  alpha Z        PSCENC =       120.68952896
  Ewald energy   TEWEN  =     -1180.93943474
  -1/2 Hartree   DENC   =      -191.75399906
  -exchange  EXHF       =         0.00000000
  -V(xc)+E(xc)   XCENC  =         8.54996221
  PAW double counting   =      1379.25240705    -1396.41837518
  entropy T*S    EENTRO =        -0.00047761
  eigenvalues    EBANDS =        55.52364483
  atomic energy  EATOM  =      1188.58965621
  ---------------------------------------------------
  free energy    TOTEN  =       -16.50708734 eV

  energy without entropy =      -16.50660973  energy(sigma->0) =      -16.50696794


--------------------------------------------------------------------------------------------------------




----------------------------------------- Iteration    1(  15)  ---------------------------------------


    POTLOK:  cpu time    0.03: real time    0.03
    SETDIJ:  cpu time    0.02: real time    0.02
    EDDIAG:  cpu time    0.03: real time    0.03
  RMM-DIIS:  cpu time    0.11: real time    0.11
    ORTHCH:  cpu time    0.00: real time    0.00
       DOS:  cpu time    0.00: real time    0.00
    CHARGE:  cpu time    0.03: real time    0.02
    MIXING:  cpu time    0.00: real time    0.00
    --------------------------------------------
      LOOP:  cpu time    0.22: real time    0.22

 eigenvalue-minimisations  :   493
 total energy-change (2. order) : 0.2760601E-02  (-0.3601290E-03)
 number of electron      16.0000025 magnetization       4.2465295
 augmentation part        8.2792244 magnetization       3.5098722

 Broyden mixing:
  rms(total) = 0.29373E-01    rms(broyden)= 0.29366E-01
  rms(prec ) = 0.29917E-01
  weight for this iteration     100.00

 eigenvalues of (default mixing * dielectric matrix)
  average eigenvalue GAMMA=   1.1744
  2.5637  1.2219  0.8102  0.6382  0.6382

 Free energy of the ion-electron system (eV)
  ---------------------------------------------------
  alpha Z        PSCENC =       120.68952896
  Ewald energy   TEWEN  =     -1180.93943474
  -1/2 Hartree   DENC   =      -190.21464700
  -exchange  EXHF       =         0.00000000
  -V(xc)+E(xc)   XCENC  =         8.39232556
  PAW double counting   =      1434.13052407    -1452.52024373
  entropy T*S    EENTRO =        -0.00116613
  eigenvalues    EBANDS =        55.36913006
  atomic energy  EATOM  =      1188.58965621
  ---------------------------------------------------
  free energy    TOTEN  =       -16.50432674 eV

  energy without entropy =      -16.50316060  energy(sigma->0) =      -16.50403520


--------------------------------------------------------------------------------------------------------




----------------------------------------- Iteration    1(  16)  ---------------------------------------


    POTLOK:  cpu time    0.03: real time    0.03
    SETDIJ:  cpu time    0.02: real time    0.02
    EDDIAG:  cpu time    0.03: real time    0.03
  RMM-DIIS:  cpu time    0.10: real time    0.10
    ORTHCH:  cpu time    0.00: real time    0.00
       DOS:  cpu time    0.01: real time    0.00
    CHARGE:  cpu time    0.02: real time    0.02
    MIXING:  cpu time    0.00: real time    0.00
    --------------------------------------------
      LOOP:  cpu time    0.21: real time    0.21

 eigenvalue-minimisations  :   442
 total energy-change (2. order) :-0.5209060E-03  (-0.7295581E-04)
 number of electron      16.0000026 magnetization       4.2610486
 augmentation part        8.2830565 magnetization       3.5222670

 Broyden mixing:
  rms(total) = 0.90493E-02    rms(broyden)= 0.90458E-02
  rms(prec ) = 0.90883E-02
  weight for this iteration     100.00

 eigenvalues of (default mixing * dielectric matrix)
  average eigenvalue GAMMA=   1.1130
  2.4000  1.1127  1.1127  0.6258  0.7421  0.6849

 Free energy of the ion-electron system (eV)
  ---------------------------------------------------
  alpha Z        PSCENC =       120.68952896
  Ewald energy   TEWEN  =     -1180.93943474
  -1/2 Hartree   DENC   =      -190.34615363
  -exchange  EXHF       =         0.00000000
  -V(xc)+E(xc)   XCENC  =         8.40586502
  PAW double counting   =      1426.95065938    -1445.13740595
  entropy T*S    EENTRO =        -0.00091413
  eigenvalues    EBANDS =        55.28335124
  atomic energy  EATOM  =      1188.58965621
  ---------------------------------------------------
  free energy    TOTEN  =       -16.50484764 eV

  energy without entropy =      -16.50393352  energy(sigma->0) =      -16.50461911


--------------------------------------------------------------------------------------------------------




----------------------------------------- Iteration    1(  17)  ---------------------------------------


    POTLOK:  cpu time    0.03: real time    0.03
    SETDIJ:  cpu time    0.02: real time    0.02
    EDDIAG:  cpu time    0.03: real time    0.03
  RMM-DIIS:  cpu time    0.07: real time    0.07
    ORTHCH:  cpu time    0.00: real time    0.00
       DOS:  cpu time    0.00: real time    0.00
    --------------------------------------------
      LOOP:  cpu time    0.15: real time    0.15

 eigenvalue-minimisations  :   259
 total energy-change (2. order) :-0.1326188E-04  (-0.5608879E-05)
 number of electron      16.0000026 magnetization       4.2610486
 augmentation part        8.2830565 magnetization       3.5222670

 Free energy of the ion-electron system (eV)
  ---------------------------------------------------
  alpha Z        PSCENC =       120.68952896
  Ewald energy   TEWEN  =     -1180.93943474
  -1/2 Hartree   DENC   =      -190.40575295
  -exchange  EXHF       =         0.00000000
  -V(xc)+E(xc)   XCENC  =         8.42478073
  PAW double counting   =      1424.86525669    -1442.98858192
  entropy T*S    EENTRO =        -0.00084027
  eigenvalues    EBANDS =        55.26052639
  atomic energy  EATOM  =      1188.58965621
  ---------------------------------------------------
  free energy    TOTEN  =       -16.50486091 eV

  energy without entropy =      -16.50402063  energy(sigma->0) =      -16.50465084


--------------------------------------------------------------------------------------------------------




 average (electrostatic) potential at core
  the test charge radii are     1.0103
  (the norm of the test charge is              1.0000)
       1 -43.4874       2 -43.4874
 
 
 
 E-fermi :   5.6265     XC(G=0): -13.0829     alpha+bet :-13.5338


 spin component 1

 k-point   1 :       0.0000    0.0000    0.0000
  band No.  band energies     occupation 
      1      -2.6391      1.00000
      2       0.9191      1.00000
      3       0.9191      1.00000
      4       3.4078      1.00000
      5       3.4078      1.00000
      6       3.4078      1.00000
      7       4.6140      1.00000
      8       4.6140      1.00000
      9       5.7833     -0.00645
     10       5.7833     -0.00645
     11       5.7833     -0.00645
     12      15.6228      0.00000
     13      15.6228      0.00000

 k-point   2 :       0.2000    0.0000    0.0000
  band No.  band energies     occupation 
      1      -1.8355      1.00000
      2       1.2390      1.00000
      3       1.2604      1.00000
      4       3.4169      1.00000
      5       3.4169      1.00000
      6       3.6260      1.00000
      7       4.2593      1.00000
      8       4.7528      1.00000
      9       5.1984      1.00000
     10       5.1984      1.00000
     11       5.5480      1.03903
     12      11.7981      0.00000
     13      17.0703      0.00000

 k-point   3 :       0.4000    0.0000    0.0000
  band No.  band energies     occupation 
      1       0.1801      1.00000
      2       1.5453      1.00000
      3       2.1716      1.00000
      4       3.3230      1.00000
      5       3.6029      1.00000
      6       3.6029      1.00000
      7       4.2061      1.00000
      8       4.2177      1.00000
      9       4.2177      1.00000
     10       4.9403      1.00000
     11       5.2321      1.00000
     12       7.2948      0.00000
     13      20.5568      0.00000

 k-point   4 :       0.2000    0.2000    0.0000
  band No.  band energies     occupation 
      1      -1.1054      1.00000
      2       1.4376      1.00000
      3       1.6486      1.00000
      4       3.0243      1.00000
      5       3.2986      1.00000
      6       4.2199      1.00000
      7       4.3232      1.00000
      8       4.4214      1.00000
      9       4.6561      1.00000
     10       4.7004      1.00000
     11       5.8739      0.00225
     12      12.0185      0.00000
     13      13.8914      0.00000

 k-point   5 :       0.4000    0.2000    0.0000
  band No.  band energies     occupation 
      1       0.5401      1.00000
      2       1.5281      1.00000
      3       2.4824      1.00000
      4       2.9240      1.00000
      5       3.1694      1.00000
      6       3.3745      1.00000
      7       4.2539      1.00000
      8       4.2994      1.00000
      9       4.9791      1.00000
     10       5.1503      1.00000
     11       5.6330      0.43248
     12       7.8325      0.00000
     13      15.9308      0.00000

 k-point   6 :       0.4000    0.4000    0.0000
  band No.  band energies     occupation 
      1       0.8101      1.00000
      2       1.0673      1.00000
      3       2.4421      1.00000
      4       2.5983      1.00000
      5       3.7664      1.00000
      6       4.4960      1.00000
      7       4.5268      1.00000
      8       4.7735      1.00000
      9       5.0487      1.00000
     10       5.7496     -0.03487
     11       6.0226      0.00000
     12       7.6010      0.00000
     13      13.0543      0.00000

 k-point   7 :       0.2000    0.2000    0.2000
  band No.  band energies     occupation 
      1      -0.4030      1.00000
      2       1.8331      1.00000
      3       1.8331      1.00000
      4       2.8881      1.00000
      5       2.8881      1.00000
      6       3.3609      1.00000
      7       4.5738      1.00000
      8       4.5738      1.00000
      9       4.9059      1.00000
     10       5.3054      0.99989
     11       5.3054      0.99989
     12      13.2573      0.00000
     13      13.2573      0.00000

 k-point   8 :       0.4000    0.2000    0.2000
  band No.  band energies     occupation 
      1       1.0477      1.00000
      2       1.9313      1.00000
      3       2.2456      1.00000
      4       2.6093      1.00000
      5       2.9288      1.00000
      6       3.0494      1.00000
      7       4.4105      1.00000
      8       4.5668      1.00000
      9       4.8910      1.00000
     10       5.3024      0.99991
     11       6.1135      0.00000
     12       8.8458      0.00000
     13      16.0158      0.00000

 k-point   9 :       0.4000    0.4000    0.2000
  band No.  band energies     occupation 
      1       1.3874      1.00000
      2       1.5435      1.00000
      3       2.3638      1.00000
      4       2.4377      1.00000
      5       3.4337      1.00000
      6       3.5377      1.00000
      7       4.6697      1.00000
      8       4.6937      1.00000
      9       4.7872      1.00000
     10       5.1594      1.00000
     11       7.6154      0.00000
     12       9.5537      0.00000
     13      13.1943      0.00000

 k-point  10 :       0.4000    0.4000    0.4000
  band No.  band energies     occupation 
      1       2.0421      1.00000
      2       2.3386      1.00000
      3       2.3386      1.00000
      4       2.6579      1.00000
      5       2.7085      1.00000
      6       2.7085      1.00000
      7       4.8043      1.00000
      8       4.8043      1.00000
      9       4.8387      1.00000
     10       4.8387      1.00000
     11      10.0120      0.00000
     12      12.8145      0.00000
     13      12.8145      0.00000

 spin component 2

 k-point   1 :       0.0000    0.0000    0.0000
  band No.  band energies     occupation 
      1      -2.4929      1.00000
      2       2.7236      1.00000
      3       2.7236      1.00000
      4       5.2693      0.99999
      5       5.2693      0.99999
      6       5.2693      0.99999
      7       7.3111      0.00000
      8       7.3111      0.00000
      9       7.9249      0.00000
     10       7.9249      0.00000
     11       7.9249      0.00000
     12      15.8600      0.00000
     13      15.8600      0.00000

 k-point   2 :       0.2000    0.0000    0.0000
  band No.  band energies     occupation 
      1      -1.6818      1.00000
      2       2.9451      1.00000
      3       3.1297      1.00000
      4       5.2523      1.00000
      5       5.2523      1.00000
      6       5.5108      1.04157
      7       6.8535      0.00000
      8       7.1810      0.00000
      9       7.1810      0.00000
     10       7.4771      0.00000
     11       7.6593      0.00000
     12      12.5530      0.00000
     13      17.4735      0.00000

 k-point   3 :       0.4000    0.0000    0.0000
  band No.  band energies     occupation 
      1       0.4614      1.00000
      2       2.6158      1.00000
      3       4.2310      1.00000
      4       5.4021      0.99609
      5       5.4021      0.99609
      6       5.6605      0.17083
      7       6.0464      0.00000
      8       6.0464      0.00000
      9       6.1555      0.00000
     10       6.9760      0.00000
     11       7.8605      0.00000
     12       9.0036      0.00000
     13      21.1277      0.00000

 k-point   4 :       0.2000    0.2000    0.0000
  band No.  band energies     occupation 
      1      -0.9276      1.00000
      2       3.2206      1.00000
      3       3.3860      1.00000
      4       4.8089      1.00000
      5       5.0894      1.00000
      6       6.1608      0.00000
      7       6.1862      0.00000
      8       6.6128      0.00000
      9       6.9892      0.00000
     10       7.3616      0.00000
     11       8.0264      0.00000
     12      12.8531      0.00000
     13      14.7660      0.00000

 k-point   5 :       0.4000    0.2000    0.0000
  band No.  band energies     occupation 
      1       0.9771      1.00000
      2       2.7761      1.00000
      3       4.2514      1.00000
      4       4.6637      1.00000
      5       4.8882      1.00000
      6       5.1318      1.00000
      7       6.3337      0.00000
      8       6.5696      0.00000
      9       7.0041      0.00000
     10       7.7447      0.00000
     11       7.7458      0.00000
[...]
      6       3.2085      1.00000
      7       4.6222      1.00000
      8       4.7766      1.00000
      9       5.1237      1.00000
     10       5.5362      0.99982
     11       6.3625      0.00000
     12       9.1406      0.00000
     13      16.3948      0.00000

 k-point   9 :       0.4000    0.4000    0.2000
  band No.  band energies     occupation 
      1       1.5062      1.00000
      2       1.6620      1.00000
      3       2.4989      1.00000
      4       2.5758      1.00000
      5       3.6067      1.00000
      6       3.7088      1.00000
      7       4.8904      1.00000
      8       4.9176      1.00000
      9       5.0187      1.00000
     10       5.3921      1.00000
     11       7.8893      0.00000
     12       9.8416      0.00000
     13      13.5767      0.00000

 k-point  10 :       0.4000    0.4000    0.4000
  band No.  band energies     occupation 
      1       2.1690      1.00000
      2       2.4740      1.00000
      3       2.4740      1.00000
      4       2.8069      1.00000
      5       2.8565      1.00000
      6       2.8565      1.00000
      7       5.0359      1.00000
      8       5.0359      1.00000
      9       5.0694      1.00000
     10       5.0694      1.00000
     11      10.3239      0.00000
     12      13.1492      0.00000
     13      13.1492      0.00000

 spin component 2

 k-point   1 :       0.0000    0.0000    0.0000
  band No.  band energies     occupation 
      1      -2.4000      1.00000
      2       2.7802      1.00000
      3       2.7802      1.00000
      4       5.4097      1.00000
      5       5.4097      1.00000
      6       5.4097      1.00000
      7       7.4820      0.00000
      8       7.4820      0.00000
      9       8.1362      0.00000
     10       8.1362      0.00000
     11       8.1362      0.00000
     12      16.2190      0.00000
     13      16.2190      0.00000

 k-point   2 :       0.2000    0.0000    0.0000
  band No.  band energies     occupation 
      1      -1.5763      1.00000
      2       3.0179      1.00000
      3       3.1949      1.00000
      4       5.3926      1.00000
      5       5.3926      1.00000
      6       5.6573      0.99565
      7       7.0109      0.00000
      8       7.3735      0.00000
      9       7.3735      0.00000
     10       7.6533      0.00000
     11       7.8630      0.00000
     12      12.8734      0.00000
     13      17.8618      0.00000

 k-point   3 :       0.4000    0.0000    0.0000
  band No.  band energies     occupation 
      1       0.5911      1.00000
      2       2.7320      1.00000
      3       4.3207      1.00000
      4       5.5472      0.99970
      5       5.5472      0.99970
      6       5.7853      0.99318
      7       6.2095      0.00001
      8       6.2095      0.00001
      9       6.3185      0.00000
     10       7.1608      0.00000
     11       8.0534      0.00000
     12       9.2485      0.00000
     13      21.5739      0.00000

 k-point   4 :       0.2000    0.2000    0.0000
  band No.  band energies     occupation 
      1      -0.8122      1.00000
      2       3.2963      1.00000
      3       3.4707      1.00000
      4       4.9368      1.00000
      5       5.2250      1.00000
      6       6.3250      0.00000
      7       6.3521      0.00000
      8       6.7901      0.00000
      9       7.1533      0.00000
     10       7.5342      0.00000
     11       8.2405      0.00000
     12      13.1703      0.00000
     13      15.1354      0.00000

 k-point   5 :       0.4000    0.2000    0.0000
  band No.  band energies     occupation 
      1       1.1047      1.00000
      2       2.8840      1.00000
      3       4.3599      1.00000
      4       4.7882      1.00000
      5       5.0194      1.00000
      6       5.2696      1.00000
      7       6.4949      0.00000
      8       6.7290      0.00000
      9       7.1908      0.00000
     10       7.9344      0.00000
     11       7.9513      0.00000
     12       9.6216      0.00000
     13      17.2254      0.00000

 k-point   6 :       0.4000    0.4000    0.0000
  band No.  band energies     occupation 
      1       1.9193      1.00000
      2       2.4663      1.00000
      3       4.2313      1.00000
      4       4.3962      1.00000
      5       5.5079      0.99996
      6       5.7222      1.03351
      7       7.0444      0.00000
      8       7.2968      0.00000
      9       7.6994      0.00000
     10       8.0888      0.00000
     11       8.4121      0.00000
     12       9.0699      0.00000
     13      14.7205      0.00000

 k-point   7 :       0.2000    0.2000    0.2000
  band No.  band energies     occupation 
      1      -0.0792      1.00000
      2       3.6725      1.00000
      3       3.6725      1.00000
      4       4.7651      1.00000
      5       4.7651      1.00000
      6       5.1626      1.00000
      7       7.0313      0.00000
      8       7.3857      0.00000
      9       7.3857      0.00000
     10       7.5831      0.00000
     11       7.5831      0.00000
     12      14.5229      0.00000
     13      14.5229      0.00000

 k-point   8 :       0.4000    0.2000    0.2000
  band No.  band energies     occupation 
      1       1.6836      1.00000
      2       3.2718      1.00000
      3       4.0902      1.00000
      4       4.4391      1.00000
      5       4.6285      1.00000
      6       4.8424      1.00000
      7       6.9220      0.00000
      8       7.0240      0.00000
      9       7.6877      0.00000
     10       7.7512      0.00000
     11       8.2662      0.00000
     12      10.5621      0.00000
     13      17.2864      0.00000

 k-point   9 :       0.4000    0.4000    0.2000
  band No.  band energies     occupation 
      1       2.5517      1.00000
      2       2.9854      1.00000
      3       4.0883      1.00000
      4       4.1581      1.00000
      5       4.8084      1.00000
      6       4.9535      1.00000
      7       7.3023      0.00000
      8       7.4279      0.00000
      9       7.7109      0.00000
     10       7.7918      0.00000
     11       9.4683      0.00000
     12      11.0087      0.00000
     13      14.7530      0.00000

 k-point  10 :       0.4000    0.4000    0.4000
  band No.  band energies     occupation 
      1       3.5884      1.00000
      2       3.7979      1.00000
      3       3.9269      1.00000
      4       3.9269      1.00000
      5       4.1846      1.00000
      6       4.1846      1.00000
      7       7.6836      0.00000
      8       7.6836      0.00000
      9       7.7104      0.00000
     10       7.7104      0.00000
     11      11.6020      0.00000
     12      14.1137      0.00000
     13      14.1137      0.00000


--------------------------------------------------------------------------------------------------------


 soft charge-density along one line, spin component           1
         0         1         2         3         4         5         6         7         8         9
 total charge-density along one line
 
 soft charge-density along one line, spin component           2
         0         1         2         3         4         5         6         7         8         9
 total charge-density along one line
 
 pseudopotential strength for first ion, spin component:           1
 -5.568  -0.000   0.000  -0.000   0.000  -6.099  -0.000   0.000
 -0.000  -5.568  -0.000   0.000   0.000  -0.000  -6.099  -0.000
  0.000  -0.000  -5.747  -0.000  -0.000   0.000  -0.000  -6.273
 -0.000   0.000  -0.000  -5.568   0.000  -0.000   0.000  -0.000
  0.000   0.000  -0.000   0.000  -5.747   0.000   0.000  -0.000
 -6.099  -0.000   0.000  -0.000   0.000  -6.588  -0.000   0.000
 -0.000  -6.099  -0.000   0.000   0.000  -0.000  -6.588  -0.000
  0.000  -0.000  -6.273  -0.000  -0.000   0.000  -0.000  -6.757
 -0.000   0.000  -0.000  -6.099   0.000  -0.000   0.000  -0.000
  0.000   0.000  -0.000   0.000  -6.273   0.000   0.000  -0.000
 -0.000   0.000   0.000   0.000  -0.000  -0.000   0.000   0.000
 -0.000   0.000   0.000   0.000  -0.000  -0.000   0.000   0.000
  0.000   0.000  -0.000  -0.000  -0.000   0.000   0.000  -0.000
 -0.000   0.000   0.000   0.000   0.000  -0.000   0.000   0.000
  0.000  -0.000  -0.000   0.000   0.000   0.000  -0.000  -0.000
  0.000   0.000  -0.000  -0.000  -0.000   0.000   0.000  -0.000
 -0.000   0.000   0.000   0.000   0.000  -0.000   0.000   0.000
  0.000  -0.000  -0.000   0.000   0.000   0.000  -0.000  -0.000
 pseudopotential strength for first ion, spin component:           2
 -4.179  -0.000   0.000  -0.000   0.000  -4.754  -0.000   0.000
 -0.000  -4.179  -0.000   0.000   0.000  -0.000  -4.754  -0.000
  0.000  -0.000  -3.928  -0.000  -0.000   0.000  -0.000  -4.509
 -0.000   0.000  -0.000  -4.179   0.000  -0.000   0.000  -0.000
  0.000   0.000  -0.000   0.000  -3.928   0.000   0.000  -0.000
 -4.754  -0.000   0.000  -0.000   0.000  -5.285  -0.000   0.000
 -0.000  -4.754  -0.000   0.000   0.000  -0.000  -5.285  -0.000
  0.000  -0.000  -4.509  -0.000  -0.000   0.000  -0.000  -5.046
 -0.000   0.000  -0.000  -4.754   0.000  -0.000   0.000  -0.000
  0.000   0.000  -0.000   0.000  -4.509   0.000   0.000  -0.000
 -0.000   0.000   0.000   0.000  -0.000  -0.000   0.000   0.000
 -0.000   0.000   0.000   0.000  -0.000  -0.000   0.000   0.000
  0.000   0.000  -0.000  -0.000  -0.000   0.000   0.000  -0.000
 -0.000   0.000   0.000   0.000   0.000  -0.000   0.000   0.000
  0.000  -0.000  -0.000   0.000   0.000   0.000  -0.000  -0.000
  0.000   0.000  -0.000  -0.000  -0.000   0.000   0.000  -0.000
 -0.000   0.000   0.000   0.000   0.000  -0.000   0.000   0.000
  0.000  -0.000  -0.000   0.000   0.000   0.000  -0.000  -0.000
 total augmentation occupancy for first ion, spin component:           1
  2.092   0.000  -0.000  -0.000   0.000  -1.140   0.000   0.000   0.000   0.000   0.000   0.000   0.000  -0.000   0.000   0.000
  0.000   2.092  -0.000  -0.000  -0.000   0.000  -1.140  -0.000   0.000   0.000   0.000  -0.000   0.000   0.000   0.000   0.000
 -0.000  -0.000   3.757  -0.000  -0.000  -0.000   0.000  -2.431   0.000   0.000  -0.000   0.000   0.000   0.000   0.000   0.000
 -0.000  -0.000  -0.000   2.092   0.000  -0.000   0.000  -0.000  -1.140   0.000  -0.000   0.000   0.000   0.000   0.000   0.000
  0.000  -0.000  -0.000  -0.000   3.757   0.000   0.000  -0.000  -0.000  -2.431  -0.000   0.000   0.000  -0.000   0.000   0.000
 -1.140   0.000  -0.000  -0.000  -0.000   1.564   0.000  -0.000  -0.000  -0.000  -0.000   0.000   0.000   0.000   0.000   0.000
  0.000  -1.140   0.000  -0.000   0.000   0.000   1.564   0.000  -0.000   0.000   0.000   0.000   0.000   0.000   0.000   0.000
  0.000  -0.000  -2.431   0.000  -0.000  -0.000   0.000   2.389   0.000   0.000   0.000   0.000   0.000   0.000   0.000   0.000
  0.000  -0.000  -0.000  -1.140  -0.000   0.000   0.000  -0.000   1.564  -0.000   0.000  -0.000   0.000   0.000   0.000  -0.000
  0.000  -0.000  -0.000   0.000  -2.431  -0.000  -0.000   0.000   0.000   2.389  -0.000  -0.000   0.000   0.000   0.000   0.000
 -0.000   0.000   0.000  -0.000   0.000   0.000   0.000   0.000   0.000  -0.000   2.441  -0.281   0.000   0.000   0.000   0.000
  0.000  -0.000  -0.000   0.000   0.000  -0.000   0.000   0.000  -0.000  -0.000  -0.281   0.038   0.000   0.000   0.000   0.000
  0.000   0.000  -0.000   0.000   0.000   0.000   0.000  -0.000   0.000   0.000   0.000   0.000   0.306   0.000   0.000  -0.026
 -0.000   0.000   0.000   0.000   0.000   0.000   0.000   0.000   0.000   0.000   0.000   0.000  -0.000   0.306   0.000   0.000
  0.000   0.000  -0.000   0.000   0.000   0.000   0.000   0.000   0.000   0.000   0.000   0.000   0.000   0.000   0.306   0.000
  0.000   0.000   0.000  -0.000   0.000   0.000   0.000   0.000  -0.000   0.000   0.000   0.000  -0.026   0.000  -0.000   0.003
 -0.000   0.000  -0.000   0.000   0.000  -0.000   0.000  -0.000   0.000  -0.000   0.000   0.000  -0.000  -0.026  -0.000   0.000
  0.000  -0.000   0.000   0.000   0.000   0.000  -0.000  -0.000   0.000   0.000   0.000   0.000   0.000   0.000  -0.026   0.000
 total augmentation occupancy for first ion, spin component:           2
  1.708  -0.000  -0.000  -0.000  -0.000  -0.688  -0.000   0.000   0.000  -0.000  -0.000   0.000   0.000  -0.000   0.000   0.000
  0.000   1.708   0.000   0.000  -0.000  -0.000  -0.688  -0.000  -0.000   0.000   0.000   0.000   0.000   0.000   0.000   0.000
 -0.000   0.000   3.210   0.000  -0.000  -0.000   0.000  -1.481   0.000   0.000  -0.000   0.000   0.000   0.000  -0.000  -0.000
  0.000   0.000   0.000   1.708   0.000  -0.000  -0.000  -0.000  -0.688   0.000   0.000   0.000   0.000   0.000   0.000   0.000
 -0.000  -0.000   0.000   0.000   3.210  -0.000   0.000   0.000  -0.000  -1.481   0.000   0.000   0.000   0.000   0.000   0.000
 -0.688   0.000  -0.000   0.000  -0.000   0.032  -0.000   0.000  -0.000   0.000  -0.000  -0.000   0.000  -0.000   0.000   0.000
 -0.000  -0.688   0.000  -0.000   0.000   0.000   0.032  -0.000  -0.000   0.000  -0.000  -0.000   0.000   0.000   0.000   0.000
  0.000  -0.000  -1.481  -0.000   0.000   0.000  -0.000   0.463  -0.000  -0.000   0.000   0.000   0.000   0.000   0.000   0.000
 -0.000   0.000   0.000  -0.688   0.000   0.000  -0.000  -0.000   0.032  -0.000   0.000   0.000   0.000   0.000   0.000  -0.000
 -0.000   0.000  -0.000   0.000  -1.481   0.000   0.000  -0.000  -0.000   0.463   0.000   0.000   0.000  -0.000   0.000   0.000
  0.000   0.000   0.000   0.000   0.000   0.000  -0.000   0.000  -0.000  -0.000  -0.318   0.097   0.000   0.000   0.000   0.000
 -0.000  -0.000   0.000  -0.000   0.000  -0.000  -0.000   0.000  -0.000   0.000   0.097  -0.017  -0.000   0.000   0.000   0.000
  0.000   0.000   0.000   0.000   0.000   0.000   0.000   0.000   0.000  -0.000   0.000  -0.000  -0.038  -0.000  -0.000   0.006
 -0.000   0.000   0.000   0.000   0.000  -0.000   0.000   0.000   0.000   0.000   0.000  -0.000  -0.000  -0.038   0.000  -0.000
  0.000   0.000   0.000   0.000  -0.000   0.000   0.000   0.000   0.000   0.000   0.000  -0.000  -0.000   0.000  -0.038   0.000
  0.000   0.000  -0.000   0.000  -0.000   0.000   0.000   0.000   0.000   0.000   0.000   0.000   0.006   0.000   0.000  -0.001
 -0.000   0.000   0.000   0.000  -0.000  -0.000   0.000  -0.000   0.000   0.000   0.000   0.000  -0.000   0.006  -0.000   0.000
  0.000  -0.000  -0.000   0.000  -0.000   0.000  -0.000   0.000   0.000   0.000   0.000   0.000   0.000   0.000   0.006  -0.000


------------------------ aborting loop because EDIFF is reached ----------------------------------------


    CHARGE:  cpu time    0.02: real time    0.02
    FORLOC:  cpu time    0.00: real time    0.00
    FORNL :  cpu time    0.06: real time    0.07
    STRESS:  cpu time    0.13: real time    0.13
    FORCOR:  cpu time    0.03: real time    0.03
    FORHAR:  cpu time    0.00: real time    0.00
    MIXING:  cpu time    0.00: real time    0.00

  FORCE on cell =-STRESS in cart. coord.  units (eV):
  Direction    XX          YY          ZZ          XY          YZ          ZX
  --------------------------------------------------------------------------------------
  Alpha Z   123.16569   123.16569   123.16569
  Ewald    -396.32036  -396.32036  -396.32036    -0.00000    -0.00000    -0.00000
  Hartree    62.42505    62.42505    62.42505    -0.00000    -0.00000    -0.00000
  E(xc)     -79.33169   -79.33169   -79.33169    -0.00000    -0.00000     0.00000
  Local     118.33533   118.33533   118.33533     0.00000     0.00000     0.00000
  n-local   -53.73726   -51.33457   -48.31373     2.63888    -0.67828     0.34358
  augment    77.42319    77.42319    77.42319    -0.00000    -0.00000     0.00000
  Kinetic   148.26870   145.49614   142.58043     3.26222    -0.32690    -0.12909
  Fock        0.00000     0.00000     0.00000     0.00000     0.00000     0.00000
  -------------------------------------------------------------------------------------
  Total       0.01711     0.01711     0.01711     0.00000     0.00000     0.00000
  in kB       1.22129     1.22129     1.22129     0.00000     0.00000     0.00000
  external pressure =        1.22 kB  Pullay stress =        0.00 kB


 VOLUME and BASIS-vectors are now :
 -----------------------------------------------------------------------------
  energy-cutoff  :      350.00
  volume of cell :       22.45
      direct lattice vectors                 reciprocal lattice vectors
     2.820838965 -0.000000000 -0.000000000     0.354504462  0.000000000  0.000000000
    -0.000000000  2.820838965  0.000000000     0.000000000  0.354504462 -0.000000000
    -0.000000000  0.000000000  2.820838965     0.000000000 -0.000000000  0.354504462

  length of vectors
     2.820838965  2.820838965  2.820838965     0.354504462  0.354504462  0.354504462


 FORCES acting on ions
    electron-ion (+dipol)            ewald-force                    non-local-force                 convergence-correction
 -----------------------------------------------------------------------------------------------
   -.143E-13 -.104E-13 -.284E-13   -.725E-15 0.732E-15 -.265E-14   0.748E-28 -.798E-30 0.404E-27   0.271E-14 0.203E-14 -.255E-13
   0.198E-12 -.487E-12 0.875E-13   0.152E-14 -.227E-14 0.427E-14   0.750E-28 -.896E-30 0.404E-27   -.720E-14 -.575E-14 -.267E-13
 -----------------------------------------------------------------------------------------------
   0.184E-12 -.498E-12 0.591E-13   0.794E-15 -.154E-14 0.162E-14   0.150E-27 -.169E-29 0.808E-27   -.449E-14 -.372E-14 -.523E-13
 
 
 POSITION                                       TOTAL-FORCE (eV/Angst)
 -----------------------------------------------------------------------------------
     -0.00000     -0.00000     -0.00000         0.000000      0.000000      0.000000
      1.41042      1.41042      1.41042        -0.000000     -0.000000     -0.000000
 -----------------------------------------------------------------------------------
    total drift:                                0.000000     -0.000000      0.000000


--------------------------------------------------------------------------------------------------------



  FREE ENERGIE OF THE ION-ELECTRON SYSTEM (eV)
  ---------------------------------------------------
  free  energy   TOTEN  =       -16.51100906 eV

  energy  without entropy=      -16.51029739  energy(sigma->0) =      -16.51083114
 
 d Force = 0.0000000E+00[ 0.000E+00, 0.000E+00]  d Energy = 0.1988339E-03-0.199E-03
 d Force = 0.0000000E+00[ 0.000E+00, 0.000E+00]  d Ewald  = 0.1007688E+01-0.101E+01


--------------------------------------------------------------------------------------------------------


    POTLOK:  cpu time    0.05: real time    0.05


--------------------------------------------------------------------------------------------------------




--------------------------------------------------------------------------------------------------------


  
 reached required accuracy - stopping structural energy minimisation
     LOOP+:  cpu time    1.09: real time    1.09
    4ORBIT:  cpu time    0.00: real time    0.00

 total amount of memory used by VASP on root node    34870. kBytes
========================================================================

   base      :      30000. kBytes
   nonl-proj :        513. kBytes
   fftplans  :        800. kBytes
   grid      :       1894. kBytes
   one-center:         62. kBytes
   wavefun   :       1601. kBytes
 
  
  
 General timing and accounting informations for this job:
 ========================================================
  
                  Total CPU time used (sec):        8.832
                            User time (sec):        8.824
                          System time (sec):        0.008
                         Elapsed time (sec):        8.838
  
                   Maximum memory used (kb):       40540.
                   Average memory used (kb):           0.
  
                          Minor page faults:         3497
                          Major page faults:            0
                 Voluntary context switches:            1
