<?xml version="1.0" encoding="ISO-8859-1"?>
<modeling>
 <generator>
  <i name="program" type="string">vasp </i>
  <i name="version" type="string">5.3.3  </i>
  <i name="subversion" type="string">18Dez12 (build Sep  7 2015 22:32:56) complex                          parallel </i>
  <i name="platform" type="string">LinuxIFC </i>
  <i name="date" type="string">2002 02 26 </i>
  <i name="time" type="string">03:02:04 </i>
 </generator>
 <incar>
  <i type="string" name="SYSTEM"> Crystal</i>
  <i type="int" name="ISTART">     0</i>
  <i type="string" name="PREC">normal</i>
  <i type="string" name="ALGO"> fast</i>
  <i type="int" name="NSIM">     4</i>
  <i type="int" name="ISPIN">     2</i>
  <i type="int" name="ICHARG">     2</i>
  <i type="int" name="NELMDL">   -10</i>
  <i type="int" name="NELMIN">     4</i>
  <i type="int" name="IBRION">     2</i>
  <i name="EDIFF">      0.00010000</i>
  <i name="EDIFFG">     -0.01000000</i>
  <i type="int" name="NSW">   100</i>
  <i type="int" name="ISIF">     3</i>
  <i name="ENCUT">    350.00000000</i>
  <i type="logical" name="LREAL"> F  </i>
  <i type="int" name="ISMEAR">     2</i>
  <i name="SIGMA">      0.10000000</i>
  <i type="logical" name="LWAVE"> F  </i>
  <i type="logical" name="LCHARG"> F  </i>
 </incar>
 <kpoints>
  <generation param="Gamma">
   <v type="int" name="divisions">       5        5        5 </v>
   <v name="usershift">      0.00000000       0.00000000       0.00000000 </v>
   <v name="genvec1">      0.20000000       0.00000000       0.00000000 </v>
   <v name="genvec2">      0.00000000       0.20000000       0.00000000 </v>
   <v name="genvec3">      0.00000000       0.00000000       0.20000000 </v>
   <v name="shift">      0.00000000       0.00000000       0.00000000 </v>
  </generation>
  <varray name="kpointlist" >
   <v>       0.00000000       0.00000000       0.00000000 </v>
   <v>       0.20000000       0.00000000       0.00000000 </v>
   <v>       0.40000000       0.00000000       0.00000000 </v>
   <v>       0.20000000       0.20000000       0.00000000 </v>
   <v>       0.40000000       0.20000000       0.00000000 </v>
   <v>       0.40000000       0.40000000       0.00000000 </v>
   <v>       0.20000000       0.20000000       0.20000000 </v>
   <v>       0.40000000       0.20000000       0.20000000 </v>
   <v>       0.40000000       0.40000000       0.20000000 </v>
   <v>       0.40000000       0.40000000       0.40000000 </v>
  </varray>
  <varray name="weights" >
   <v>       0.00800000 </v>
   <v>       0.04800000 </v>
   <v>       0.04800000 </v>
   <v>       0.09600000 </v>
   <v>       0.19200000 </v>
   <v>       0.09600000 </v>
   <v>       0.06400000 </v>
   <v>       0.19200000 </v>
   <v>       0.19200000 </v>
   <v>       0.06400000 </v>
  </varray>
 </kpoints>
 <parameters>
  <separator name="general" >
   <i type="string" name="SYSTEM">Crystal</i>
   <i type="logical" name="LCOMPAT"> F  </i>
  </separator>
  <separator name="electronic" >
   <i type="string" name="PREC">normal</i>
   <i name="ENMAX">    350.00000000</i>
   <i name="ENAUG">    511.36800000</i>
   <i name="EDIFF">      0.00010000</i>
   <i type="int" name="IALGO">    68</i>
   <i type="int" name="IWAVPR">    11</i>
   <i type="int" name="NBANDS">    13</i>
   <i name="NELECT">     16.00000000</i>
   <i type="int" name="TURBO">     0</i>
   <i type="int" name="IRESTART">     0</i>
   <i type="int" name="NREBOOT">     0</i>
   <i type="int" name="NMIN">     0</i>
   <i name="EREF">      0.00000000</i>
   <separator name="electronic smearing" >
    <i type="int" name="ISMEAR">     2</i>
    <i name="SIGMA">      0.10000000</i>
    <i name="KSPACING">      0.50000000</i>
    <i type="logical" name="KGAMMA"> T  </i>
   </separator>
   <separator name="electronic projectors" >
    <i type="logical" name="LREAL"> F  </i>
    <v name="ROPT">      0.00000000</v>
    <i type="int" name="LMAXPAW">  -100</i>
    <i type="int" name="LMAXMIX">     2</i>
    <i type="logical" name="NLSPLINE"> F  </i>
   </separator>
   <separator name="electronic startup" >
    <i type="int" name="ISTART">     0</i>
    <i type="int" name="ICHARG">     2</i>
    <i type="int" name="INIWAV">     1</i>
   </separator>
   <separator name="electronic spin" >
    <i type="int" name="ISPIN">     2</i>
    <i type="logical" name="LNONCOLLINEAR"> F  </i>
    <v name="MAGMOM">      1.00000000      1.00000000</v>
    <i name="NUPDOWN">     -1.00000000</i>
    <i type="logical" name="LSORBIT"> F  </i>
    <v name="SAXIS">      0.00000000      0.00000000      1.00000000</v>
    <i type="logical" name="LSPIRAL"> F  </i>
    <v name="QSPIRAL">      0.00000000      0.00000000      0.00000000</v>
    <i type="logical" name="LZEROZ"> F  </i>
   </separator>
   <separator name="electronic exchange-correlation" >
    <i type="logical" name="LASPH"> F  </i>
    <i type="logical" name="LMETAGGA"> F  </i>
   </separator>
   <separator name="electronic convergence" >
    <i type="int" name="NELM">    60</i>
    <i type="int" name="NELMDL">   -10</i>
    <i type="int" name="NELMIN">     4</i>
    <i name="ENINI">    350.00000000</i>
    <separator name="electronic convergence detail" >
     <i type="logical" name="LDIAG"> T  </i>
     <i type="logical" name="LSUBROT"> T  </i>
     <i name="WEIMIN">      0.00100000</i>
     <i name="EBREAK">      0.00000192</i>
     <i name="DEPER">      0.30000000</i>
     <i type="int" name="NRMM">     4</i>
     <i name="TIME">      0.40000000</i>
    </separator>
   </separator>
   <separator name="electronic mixer" >
    <i name="AMIX">      0.40000000</i>
    <i name="BMIX">      1.00000000</i>
    <i name="AMIN">      0.10000000</i>
    <i name="AMIX_MAG">      1.60000000</i>
    <i name="BMIX_MAG">      1.00000000</i>
    <separator name="electronic mixer details" >
     <i type="int" name="IMIX">     4</i>
     <i type="int" name="MAXMIX">   -45</i>
     <i name="WC">    100.00000000</i>
     <i type="int" name="INIMIX">     1</i>
     <i type="int" name="MIXPRE">     1</i>
     <i type="int" name="MREMOVE">     5</i>
    </separator>
   </separator>
   <separator name="electronic dipolcorrection" >
    <i type="logical" name="LDIPOL"> F  </i>
    <i type="logical" name="LMONO"> F  </i>
    <i type="int" name="IDIPOL">     0</i>
    <i name="EPSILON">      1.00000000</i>
    <v name="DIPOL">   -100.00000000   -100.00000000   -100.00000000</v>
    <i name="EFIELD">      0.00000000</i>
   </separator>
  </separator>
  <separator name="grids" >
   <i type="int" name="NGX">    14</i>
   <i type="int" name="NGY">    14</i>
   <i type="int" name="NGZ">    14</i>
   <i type="int" name="NGXF">    28</i>
   <i type="int" name="NGYF">    28</i>
   <i type="int" name="NGZF">    28</i>
   <i type="logical" name="ADDGRID"> F  </i>
  </separator>
  <separator name="ionic" >
   <i type="int" name="NSW">   100</i>
   <i type="int" name="IBRION">     2</i>
   <i type="int" name="ISIF">     3</i>
   <i name="PSTRESS">      0.00000000</i>
   <i name="EDIFFG">     -0.01000000</i>
   <i type="int" name="NFREE">     1</i>
   <i name="POTIM">      0.50000000</i>
   <i name="SMASS">     -3.00000000</i>
   <i name="SCALEE">      1.00000000</i>
  </separator>
  <separator name="ionic md" >
   <i name="TEBEG">      0.00010000</i>
   <i name="TEEND">      0.00010000</i>
   <i type="int" name="NBLOCK">     1</i>
   <i type="int" name="KBLOCK">   100</i>
   <i type="int" name="NPACO">   256</i>
   <i name="APACO">     16.00000000</i>
  </separator>
  <separator name="symmetry" >
   <i type="int" name="ISYM">     2</i>
   <i name="SYMPREC">      0.00001000</i>
  </separator>
  <separator name="dos" >
   <i type="logical" name="LORBIT"> F  </i>
   <v name="RWIGS">     -1.00000000</v>
   <i type="int" name="NEDOS">   301</i>
   <i name="EMIN">     10.00000000</i>
   <i name="EMAX">    -10.00000000</i>
   <i name="EFERMI">      0.00000000</i>
  </separator>
  <separator name="writing" >
   <i type="int" name="NWRITE">     2</i>
   <i type="logical" name="LWAVE"> F  </i>
   <i type="logical" name="LCHARG"> F  </i>
   <i type="logical" name="LPARD"> F  </i>
   <i type="logical" name="LVTOT"> F  </i>
   <i type="logical" name="LVHAR"> F  </i>
   <i type="logical" name="LELF"> F  </i>
   <i type="logical" name="LOPTICS"> F  </i>
   <v name="STM">      0.00000000      0.00000000      0.00000000      0.00000000      0.00000000      0.00000000      0.00000000</v>
  </separator>
  <separator name="performance" >
   <i type="int" name="NPAR">     1</i>
   <i type="int" name="NSIM">     4</i>
   <i type="int" name="NBLK">    -1</i>
   <i type="logical" name="LPLANE"> T  </i>
   <i type="logical" name="LSCALAPACK"> F  </i>
   <i type="logical" name="LSCAAWARE"> F  </i>
   <i type="logical" name="LSCALU"> F  </i>
   <i type="logical" name="LASYNC"> F  </i>
   <i type="logical" name="LORBITALREAL"> F  </i>
  </separator>
  <separator name="miscellaneous" >
   <i type="int" name="IDIOT">     3</i>
   <i type="logical" name="LMUSIC"> F  </i>
   <v name="POMASS">     55.84700000</v>
   <v name="DARWINR">      0.00000000</v>
   <v name="DARWINV">      1.00000000</v>
   <i type="logical" name="LCORR"> T  </i>
  </separator>
  <i type="logical" name="GGA_COMPAT"> T  </i>
  <i type="logical" name="LBERRY"> F  </i>
  <i type="int" name="ICORELEVEL">     0</i>
  <i type="logical" name="LDAU"> F  </i>
  <i type="int" name="I_CONSTRAINED_M">     0</i>
  <separator name="electronic exchange-correlation" >
   <i type="string" name="GGA">--</i>
   <i type="int" name="VOSKOWN">     0</i>
   <i type="logical" name="LHFCALC"> F  </i>
   <i type="string" name="PRECFOCK"></i>
   <i type="logical" name="LSYMGRAD"> F  </i>
   <i type="logical" name="LHFONE"> F  </i>
   <i type="logical" name="LRHFCALC"> F  </i>
   <i type="logical" name="LTHOMAS"> F  </i>
   <i type="logical" name="LMODELHF"> F  </i>
   <i name="ENCUT4O">     -1.00000000</i>
   <i type="int" name="EXXOEP">     0</i>
   <i type="int" name="FOURORBIT">     0</i>
   <i name="AEXX">      0.00000000</i>
   <i name="HFALPHA">      0.00000000</i>
   <i name="MCALPHA">      0.00000000</i>
   <i name="ALDAX">      1.00000000</i>
   <i name="AGGAX">      1.00000000</i>
   <i name="ALDAC">      1.00000000</i>
   <i name="AGGAC">      1.00000000</i>
   <i type="int" name="NKREDX">     1</i>
   <i type="int" name="NKREDY">     1</i>
   <i type="int" name="NKREDZ">     1</i>
   <i type="logical" name="SHIFTRED"> F  </i>
   <i type="logical" name="ODDONLY"> F  </i>
   <i type="logical" name="EVENONLY"> F  </i>
   <i type="int" name="LMAXFOCK">     0</i>
   <i type="int" name="NMAXFOCKAE">     0</i>
   <i type="logical" name="LFOCKAEDFT"> F  </i>
   <i name="HFSCREEN">      0.00000000</i>
   <i name="HFSCREENC">      0.00000000</i>
   <i type="int" name="NBANDSGWLOW">     0</i>
  </separator>
  <separator name="vdW DFT" >
   <i type="logical" name="LUSE_VDW"> F  </i>
   <i name="Zab_VDW">     -0.84910000</i>
   <i name="PARAM1">      0.12340000</i>
   <i name="PARAM2">      1.00000000</i>
   <i name="PARAM3">      0.00000000</i>
  </separator>
  <separator name="model GW" >
   <i type="int" name="MODEL_GW">     0</i>
   <i name="MODEL_EPS0">      6.87189120</i>
   <i name="MODEL_ALPHA">      1.00000000</i>
  </separator>
  <separator name="linear response parameters" >
   <i type="logical" name="LEPSILON"> F  </i>
   <i type="logical" name="LRPA"> F  </i>
   <i type="logical" name="LNABLA"> F  </i>
   <i type="logical" name="LVEL"> F  </i>
   <i type="int" name="KINTER">     0</i>
   <i name="CSHIFT">      0.10000000</i>
   <i name="OMEGAMAX">     -1.00000000</i>
   <i name="DEG_THRESHOLD">      0.00200000</i>
  </separator>
  <separator name="orbital magnetization" >
   <i type="logical" name="NUCIND"> F  </i>
   <v name="MAGPOS">      0.00000000      0.00000000      0.00000000</v>
   <i type="logical" name="LNICSALL"> T  </i>
   <i type="logical" name="ORBITALMAG"> F  </i>
   <i type="logical" name="LMAGBLOCH"> F  </i>
   <i type="logical" name="LCHIMAG"> F  </i>
   <i type="logical" name="LGAUGE"> T  </i>
   <i type="int" name="MAGATOM">     0</i>
   <v name="MAGDIPOL">      0.00000000      0.00000000      0.00000000</v>
   <v name="AVECCONST">      0.00000000      0.00000000      0.00000000</v>
  </separator>
  <separator name="response functions" >
   <i type="logical" name="LADDER"> F  </i>
   <i type="logical" name="LFXC"> F  </i>
   <i type="logical" name="LHARTREE"> T  </i>
   <i type="int" name="IBSE">     0</i>
   <i type="logical" name="LTCTE"> F  </i>
   <i type="logical" name="LTETE"> F  </i>
   <i type="logical" name="LTRIPLET"> F  </i>
   <i type="logical" name="LFXCEPS"> F  </i>
   <i type="logical" name="L2ORDER"> F  </i>
   <i type="logical" name="LUSEW"> F  </i>
   <i name="ENCUTGW">     -2.00000000</i>
   <i name="ENCUTGWSOFT">     -2.00000000</i>
   <i name="ENCUTLF">     -1.00000000</i>
   <i type="int" name="LMAXMP2">    -1</i>
   <i name="SCISSOR">      0.00000000</i>
   <i type="int" name="NOMEGA">     0</i>
   <i type="int" name="NOMEGAR">     0</i>
   <i type="int" name="NBANDSGW">    -1</i>
   <i type="int" name="NBANDSO">    -1</i>
   <i type="int" name="NBANDSV">    -1</i>
   <i type="int" name="NELM">     1</i>
   <i type="int" name="DIM">     3</i>
   <i type="int" name="ANTIRES">     0</i>
   <i name="OMEGAMAX">    -30.00000000</i>
   <i name="OMEGATL">   -200.00000000</i>
   <i type="int" name="OMEGAGRID">     0</i>
   <i name="CSHIFT">     -0.10000000</i>
   <i type="logical" name="SELFENERGY"> F  </i>
   <i type="logical" name="LSPECTRAL"> F  </i>
   <i type="logical" name="ODDONLYGW"> F  </i>
   <i type="logical" name="EVENONLYGW"> F  </i>
   <i type="int" name="NKREDLFX">     1</i>
   <i type="int" name="NKREDLFY">     1</i>
   <i type="int" name="NKREDLFZ">     1</i>
   <i type="int" name="MAXMEM">  1800</i>
   <i type="int" name="TELESCOPE">     0</i>
  </separator>
 </parameters>
 <atominfo>
  <atoms>       2 </atoms>
  <types>       1 </types>
  <array name="atoms" >
   <dimension dim="1">ion</dimension>
   <field type="string">element</field>
   <field type="int">atomtype</field>
   <set>
    <rc><c>Fe</c><c>   1</c></rc>
    <rc><c>Fe</c><c>   1</c></rc>
   </set>
  </array>
  <array name="atomtypes" >
   <dimension dim="1">type</dimension>
   <field type="int">atomspertype</field>
   <field type="string">element</field>
   <field>mass</field>
   <field>valence</field>
   <field type="string">pseudopotential</field>
   <set>
    <rc><c>   2</c><c>Fe</c><c>     55.84700000</c><c>      8.00000000</c><c>  PAW_PBE Fe 06Sep2000                  </c></rc>
   </set>
  </array>
 </atominfo>
 <structure name="initialpos" >
  <crystal>
   <varray name="basis" >
    <v>       2.84000000       0.00000000       0.00000000 </v>
    <v>       0.00000000       2.84000000       0.00000000 </v>
    <v>       0.00000000       0.00000000       2.84000000 </v>
   </varray>
   <i name="volume">     22.90630400 </i>
   <varray name="rec_basis" >
    <v>       0.35211268       0.00000000       0.00000000 </v>
    <v>       0.00000000       0.35211268       0.00000000 </v>
    <v>       0.00000000       0.00000000       0.35211268 </v>
   </varray>
  </crystal>
  <varray name="positions" >
   <v>       0.00000000       0.00000000       0.00000000 </v>
   <v>       0.50000000       0.50000000       0.50000000 </v>
  </varray>
 </structure>
 <calculation>
  <scstep>
   <time name="dav">    0.15    0.15</time>
   <time name="total">    0.20    0.20</time>
   <energy>
    <i name="alphaZ">    120.68952896 </i>
    <i name="ewald">  -1180.93943474 </i>
    <i name="hartreedc">   -224.31721862 </i>
    <i name="XCdc">      8.02991585 </i>
    <i name="pawpsdc">   1109.45345578 </i>
    <i name="pawaedc">  -1124.86183816 </i>
    <i name="eentropy">      0.00033413 </i>
    <i name="bandstr">    176.03052628 </i>
    <i name="atom">   1188.58965621 </i>
    <i name="e_fr_energy">     72.67492570 </i>
    <i name="e_wo_entrp">     72.67459157 </i>
    <i name="e_0_energy">     72.67484216 </i>
   </energy>
  </scstep>
  <scstep>
   <time name="dav">    0.15    0.15</time>
   <time name="total">    0.15    0.15</time>
   <energy>
    <i name="e_fr_energy">    -16.20501239 </i>
    <i name="e_wo_entrp">    -16.20480510 </i>
    <i name="e_0_energy">    -16.20496057 </i>
   </energy>
  </scstep>
  <scstep>
   <time name="dav">    0.16    0.16</time>
   <time name="total">    0.16    0.16</time>
   <energy>
    <i name="e_fr_energy">    -18.49400903 </i>
    <i name="e_wo_entrp">    -18.50160484 </i>
    <i name="e_0_energy">    -18.49590798 </i>
   </energy>
  </scstep>
  <scstep>
   <time name="dav">    0.17    0.17</time>
   <time name="total">    0.17    0.17</time>
   <energy>
    <i name="e_fr_energy">    -18.51273423 </i>
    <i name="e_wo_entrp">    -18.52035699 </i>
    <i name="e_0_energy">    -18.51463992 </i>
   </energy>
  </scstep>
  <scstep>
   <time name="dav">    0.17    0.16</time>
   <time name="total">    0.17    0.17</time>
   <energy>
    <i name="e_fr_energy">    -18.51294206 </i>
    <i name="e_wo_entrp">    -18.52056234 </i>
    <i name="e_0_energy">    -18.51484713 </i>
   </energy>
  </scstep>
  <scstep>
   <time name="dav">    0.13    0.13</time>
   <time name="total">    0.13    0.13</time>
   <energy>
    <i name="e_fr_energy">    -18.51294617 </i>
    <i name="e_wo_entrp">    -18.52056639 </i>
    <i name="e_0_energy">    -18.51485122 </i>
   </energy>
  </scstep>
  <scstep>
   <time name="dav">    0.10    0.10</time>
   <time name="total">    0.10    0.11</time>
   <energy>
    <i name="e_fr_energy">    -18.51294660 </i>
    <i name="e_wo_entrp">    -18.52056682 </i>
    <i name="e_0_energy">    -18.51485166 </i>
   </energy>
  </scstep>
  <scstep>
   <time name="dav">    0.10    0.10</time>
   <time name="total">    0.10    0.10</time>
   <energy>
    <i name="e_fr_energy">    -18.51294672 </i>
    <i name="e_wo_entrp">    -18.52056693 </i>
    <i name="e_0_energy">    -18.51485178 </i>
   </energy>
  </scstep>
  <scstep>
   <time name="dav">    0.10    0.10</time>
   <time name="total">    0.10    0.10</time>
   <energy>
    <i name="e_fr_energy">    -18.51294676 </i>
    <i name="e_wo_entrp">    -18.52056697 </i>
    <i name="e_0_energy">    -18.51485181 </i>
   </energy>
  </scstep>
  <scstep>
   <time name="dav">    0.10    0.10</time>
   <time name="total">    0.12    0.12</time>
   <energy>
    <i name="e_fr_energy">    -18.51294677 </i>
    <i name="e_wo_entrp">    -18.52056698 </i>
    <i name="e_0_energy">    -18.51485182 </i>
   </energy>
  </scstep>
  <scstep>
   <time name="diag">    0.03    0.03</time>
   <time name="diis">    0.12    0.12</time>
   <time name="orth">    0.00    0.00</time>
   <time name="total">    0.22    0.22</time>
   <energy>
    <i name="e_fr_energy">    -16.40331273 </i>
    <i name="e_wo_entrp">    -16.40222388 </i>
    <i name="e_0_energy">    -16.40304052 </i>
   </energy>
  </scstep>
  <scstep>
   <time name="diag">    0.03    0.03</time>
   <time name="diis">    0.12    0.12</time>
   <time name="orth">    0.00    0.00</time>
   <time name="total">    0.22    0.22</time>
   <energy>
    <i name="e_fr_energy">    -16.49906491 </i>
    <i name="e_wo_entrp">    -16.49797500 </i>
    <i name="e_0_energy">    -16.49879243 </i>
   </energy>
  </scstep>
  <scstep>
   <time name="diag">    0.03    0.03</time>
   <time name="diis">    0.11    0.11</time>
   <time name="orth">    0.00    0.00</time>
   <time name="total">    0.22    0.22</time>
   <energy>
    <i name="e_fr_energy">    -16.51727212 </i>
    <i name="e_wo_entrp">    -16.51633753 </i>
    <i name="e_0_energy">    -16.51703847 </i>
   </energy>
  </scstep>
  <scstep>
   <time name="diag">    0.03    0.03</time>
   <time name="diis">    0.12    0.12</time>
   <time name="orth">    0.00    0.00</time>
   <time name="total">    0.22    0.22</time>
   <energy>
    <i name="e_fr_energy">    -16.50708734 </i>
    <i name="e_wo_entrp">    -16.50660973 </i>
    <i name="e_0_energy">    -16.50696794 </i>
   </energy>
  </scstep>
  <scstep>
   <time name="diag">    0.03    0.03</time>
   <time name="diis">    0.11    0.11</time>
   <time name="orth">    0.00    0.00</time>
   <time name="total">    0.22    0.22</time>
   <energy>
    <i name="e_fr_energy">    -16.50432674 </i>
    <i name="e_wo_entrp">    -16.50316060 </i>
    <i name="e_0_energy">    -16.50403520 </i>
   </energy>
  </scstep>
  <scstep>
   <time name="diag">    0.03    0.03</time>
   <time name="diis">    0.10    0.10</time>
   <time name="orth">    0.00    0.00</time>
   <time name="total">    0.21    0.21</time>
   <energy>
    <i name="e_fr_energy">    -16.50484764 </i>
    <i name="e_wo_entrp">    -16.50393352 </i>
    <i name="e_0_energy">    -16.50461911 </i>
   </energy>
  </scstep>
  <scstep>
   <time name="diag">    0.03    0.03</time>
   <time name="diis">    0.07    0.07</time>
   <time name="orth">    0.00    0.00</time>
   <time name="total">    0.15    0.15</time>
   <energy>
    <i name="alphaZ">    120.68952896 </i>
    <i name="ewald">  -1180.93943474 </i>
    <i name="hartreedc">   -190.40575295 </i>
    <i name="XCdc">      8.42478073 </i>
    <i name="pawpsdc">   1424.86525669 </i>
    <i name="pawaedc">  -1442.98858192 </i>
    <i name="eentropy">     -0.00084027 </i>
    <i name="bandstr">     55.26052639 </i>
    <i name="atom">   1188.58965621 </i>
    <i name="e_fr_energy">    -16.50486091 </i>
    <i name="e_wo_entrp">    -16.50402063 </i>
    <i name="e_0_energy">    -16.50465084 </i>
   </energy>
  </scstep>
  <structure>
   <crystal>
    <varray name="basis" >
     <v>       2.84000000       0.00000000       0.00000000 </v>
     <v>       0.00000000       2.84000000       0.00000000 </v>
     <v>       0.00000000       0.00000000       2.84000000 </v>
    </varray>
    <i name="volume">     22.90630400 </i>
    <varray name="rec_basis" >
     <v>       0.35211268       0.00000000       0.00000000 </v>
     <v>       0.00000000       0.35211268       0.00000000 </v>
     <v>       0.00000000       0.00000000       0.35211268 </v>
    </varray>
   </crystal>
   <varray name="positions" >
    <v>       0.00000000       0.00000000       0.00000000 </v>
    <v>       0.50000000       0.50000000       0.50000000 </v>
   </varray>
  </structure>
  <varray name="forces" >
   <v>      -0.00000000      -0.00000000      -0.00000000 </v>
   <v>       0.00000000       0.00000000       0.00000000 </v>
  </varray>
  <varray name="stress" >
   <v>     -35.56570307      -0.00000000      -0.00000000 </v>
   <v>      -0.00000000     -35.56570307       0.00000000 </v>
   <v>      -0.00000000       0.00000000     -35.56570307 </v>
  </varray>
  <energy>
   <i name="e_fr_energy">    -16.50486091 </i>
   <i name="e_wo_entrp">    -16.50465084 </i>
   <i name="e_0_energy">     -0.00084027 </i>
  </energy>
  <time name="totalsc">    3.20    3.21</time>
 </calculation>
 <calculation>
  <scstep>
   <time name="dav">    0.15    0.15</time>
   <time name="total">    0.23    0.22</time>
   <energy>
    <i name="alphaZ">    125.24160258 </i>
    <i name="ewald">  -1195.60383591 </i>
    <i name="hartreedc">   -192.76383963 </i>
    <i name="XCdc">      9.13599064 </i>
    <i name="pawpsdc">   1426.23994437 </i>
    <i name="pawaedc">  -1444.36793101 </i>
    <i name="eentropy">     -0.00135759 </i>
    <i name="bandstr">     66.82273240 </i>
    <i name="atom">   1188.58965621 </i>
    <i name="e_fr_energy">    -16.70703795 </i>
    <i name="e_wo_entrp">    -16.70568035 </i>
    <i name="e_0_energy">    -16.70669855 </i>
   </energy>
  </scstep>
  <scstep>
   <time name="diag">    0.03    0.03</time>
   <time name="diis">    0.12    0.12</time>
   <time name="orth">    0.00    0.00</time>
   <time name="total">    0.22    0.22</time>
   <energy>
    <i name="e_fr_energy">    -16.51775083 </i>
    <i name="e_wo_entrp">    -16.51748031 </i>
    <i name="e_0_energy">    -16.51768320 </i>
   </energy>
  </scstep>
  <scstep>
   <time name="diag">    0.03    0.03</time>
   <time name="diis">    0.12    0.12</time>
   <time name="orth">    0.00    0.00</time>
   <time name="total">    0.22    0.22</time>
   <energy>
    <i name="e_fr_energy">    -16.51117083 </i>
    <i name="e_wo_entrp">    -16.51011605 </i>
    <i name="e_0_energy">    -16.51090714 </i>
   </energy>
  </scstep>
  <scstep>
   <time name="diag">    0.03    0.03</time>
   <time name="diis">    0.12    0.12</time>
   <time name="orth">    0.00    0.00</time>
   <time name="total">    0.22    0.22</time>
   <energy>
    <i name="e_fr_energy">    -16.50887715 </i>
    <i name="e_wo_entrp">    -16.50778343 </i>
    <i name="e_0_energy">    -16.50860372 </i>
   </energy>
  </scstep>
  <scstep>
   <time name="diag">    0.03    0.03</time>
   <time name="diis">    0.12    0.12</time>
   <time name="orth">    0.00    0.00</time>
   <time name="total">    0.22    0.22</time>
   <energy>
    <i name="e_fr_energy">    -16.50727966 </i>
    <i name="e_wo_entrp">    -16.50622898 </i>
    <i name="e_0_energy">    -16.50701699 </i>
   </energy>
  </scstep>
  <scstep>
   <time name="diag">    0.03    0.03</time>
   <time name="diis">    0.07    0.07</time>
   <time name="orth">    0.00    0.00</time>
   <time name="total">    0.15    0.16</time>
   <energy>
    <i name="alphaZ">    125.24160258 </i>
    <i name="ewald">  -1195.60383591 </i>
    <i name="hartreedc">   -184.76378510 </i>
    <i name="XCdc">      8.54984671 </i>
    <i name="pawpsdc">   1460.32612654 </i>
    <i name="pawaedc">  -1478.73966188 </i>
    <i name="eentropy">     -0.00098014 </i>
    <i name="bandstr">     59.89373035 </i>
    <i name="atom">   1188.58965621 </i>
    <i name="e_fr_energy">    -16.50730064 </i>
    <i name="e_wo_entrp">    -16.50632050 </i>
    <i name="e_0_energy">    -16.50705560 </i>
   </energy>
  </scstep>
  <structure>
   <crystal>
    <varray name="basis" >
     <v>       2.80516664      -0.00000000      -0.00000000 </v>
     <v>      -0.00000000       2.80516664       0.00000000 </v>
     <v>      -0.00000000       0.00000000       2.80516664 </v>
    </varray>
    <i name="volume">     22.07374373 </i>
    <varray name="rec_basis" >
     <v>       0.35648506       0.00000000       0.00000000 </v>
     <v>       0.00000000       0.35648506      -0.00000000 </v>
     <v>       0.00000000      -0.00000000       0.35648506 </v>
    </varray>
   </crystal>
   <varray name="positions" >
    <v>      -0.00000000      -0.00000000      -0.00000000 </v>
    <v>       0.50000000       0.50000000       0.50000000 </v>
   </varray>
  </structure>
  <varray name="forces" >
   <v>      -0.00000000       0.00000000      -0.00000000 </v>
   <v>       0.00000000      -0.00000000       0.00000000 </v>
  </varray>
  <varray name="stress" >
   <v>      33.24962586      -0.00000000       0.00000000 </v>
   <v>       0.00000000      33.24962586      -0.00000000 </v>
   <v>      -0.00000000       0.00000000      33.24962586 </v>
  </varray>
  <energy>
   <i name="e_fr_energy">    -16.50730064 </i>
   <i name="e_wo_entrp">    -16.50705560 </i>
   <i name="e_0_energy">     -0.00098014 </i>
  </energy>
  <time name="totalsc">    1.62    1.61</time>
 </calculation>
 <calculation>
  <scstep>
   <time name="dav">    0.15    0.15</time>
   <time name="total">    0.22    0.22</time>
   <energy>
    <i name="alphaZ">    123.33838605 </i>
    <i name="ewald">  -1189.51662087 </i>
    <i name="hartreedc">   -183.84255148 </i>
    <i name="XCdc">      8.25770128 </i>
    <i name="pawpsdc">   1461.21490280 </i>
    <i name="pawaedc">  -1479.60051629 </i>
    <i name="eentropy">     -0.00066930 </i>
    <i name="bandstr">     55.00722803 </i>
    <i name="atom">   1188.58965621 </i>
    <i name="e_fr_energy">    -16.55248357 </i>
    <i name="e_wo_entrp">    -16.55181427 </i>
    <i name="e_0_energy">    -16.55231625 </i>
   </energy>
  </scstep>
  <scstep>
   <time name="diag">    0.03    0.03</time>
   <time name="diis">    0.12    0.12</time>
   <time name="orth">    0.00    0.00</time>
   <time name="total">    0.22    0.22</time>
   <energy>
    <i name="e_fr_energy">    -16.51569739 </i>
    <i name="e_wo_entrp">    -16.51443088 </i>
    <i name="e_0_energy">    -16.51538076 </i>
   </energy>
  </scstep>
  <scstep>
   <time name="diag">    0.03    0.03</time>
   <time name="diis">    0.12    0.12</time>
   <time name="orth">    0.00    0.00</time>
   <time name="total">    0.22    0.22</time>
   <energy>
    <i name="e_fr_energy">    -16.51219902 </i>
    <i name="e_wo_entrp">    -16.51137547 </i>
    <i name="e_0_energy">    -16.51199313 </i>
   </energy>
  </scstep>
  <scstep>
   <time name="diag">    0.03    0.03</time>
   <time name="diis">    0.12    0.12</time>
   <time name="orth">    0.00    0.00</time>
   <time name="total">    0.22    0.22</time>
   <energy>
    <i name="e_fr_energy">    -16.51133518 </i>
    <i name="e_wo_entrp">    -16.51071120 </i>
    <i name="e_0_energy">    -16.51117918 </i>
   </energy>
  </scstep>
  <scstep>
   <time name="diag">    0.03    0.03</time>
   <time name="diis">    0.12    0.12</time>
   <time name="orth">    0.00    0.00</time>
   <time name="total">    0.22    0.22</time>
   <energy>
    <i name="e_fr_energy">    -16.51108333 </i>
    <i name="e_wo_entrp">    -16.51051385 </i>
    <i name="e_0_energy">    -16.51094096 </i>
   </energy>
  </scstep>
  <scstep>
   <time name="diag">    0.03    0.03</time>
   <time name="diis">    0.07    0.07</time>
   <time name="orth">    0.00    0.00</time>
   <time name="total">    0.15    0.15</time>
   <energy>
    <i name="alphaZ">    123.33838605 </i>
    <i name="ewald">  -1189.51662087 </i>
    <i name="hartreedc">   -187.06162954 </i>
    <i name="XCdc">      8.46001449 </i>
    <i name="pawpsdc">   1446.25326307 </i>
    <i name="pawaedc">  -1464.47116175 </i>
    <i name="eentropy">     -0.00064655 </i>
    <i name="bandstr">     57.89770617 </i>
    <i name="atom">   1188.58965621 </i>
    <i name="e_fr_energy">    -16.51103273 </i>
    <i name="e_wo_entrp">    -16.51038617 </i>
    <i name="e_0_energy">    -16.51087109 </i>
   </energy>
  </scstep>
  <structure>
   <crystal>
    <varray name="basis" >
     <v>       2.81952176      -0.00000000      -0.00000000 </v>
     <v>      -0.00000000       2.81952176       0.00000000 </v>
     <v>      -0.00000000       0.00000000       2.81952176 </v>
    </varray>
    <i name="volume">     22.41436043 </i>
    <varray name="rec_basis" >
     <v>       0.35467008       0.00000000       0.00000000 </v>
     <v>       0.00000000       0.35467008      -0.00000000 </v>
     <v>       0.00000000      -0.00000000       0.35467008 </v>
    </varray>
   </crystal>
   <varray name="positions" >
    <v>      -0.00000000      -0.00000000      -0.00000000 </v>
    <v>       0.50000000       0.50000000       0.50000000 </v>
   </varray>
  </structure>
  <varray name="forces" >
   <v>       0.00000000      -0.00000000       0.00000000 </v>
   <v>      -0.00000000       0.00000000      -0.00000000 </v>
  </varray>
  <varray name="stress" >
   <v>       8.04166883      -0.00000000       0.00000000 </v>
   <v>       0.00000000       8.04166883      -0.00000000 </v>
   <v>      -0.00000000       0.00000000       8.04166883 </v>
  </varray>
  <energy>
   <i name="e_fr_energy">    -16.51103273 </i>
   <i name="e_wo_entrp">    -16.51087109 </i>
   <i name="e_0_energy">     -0.00064655 </i>
  </energy>
  <time name="totalsc">    1.60    1.60</time>
 </calculation>
 <calculation>
  <scstep>
   <time name="dav">    0.15    0.15</time>
   <time name="total">    0.22    0.22</time>
   <energy>
    <i name="alphaZ">    122.85278922 </i>
    <i name="ewald">  -1187.95348162 </i>
    <i name="hartreedc">   -186.83945629 </i>
    <i name="XCdc">      8.38834920 </i>
    <i name="pawpsdc">   1446.01339901 </i>
    <i name="pawaedc">  -1464.24582514 </i>
    <i name="eentropy">     -0.00119702 </i>
    <i name="bandstr">     56.68273850 </i>
    <i name="atom">   1188.58965621 </i>
    <i name="e_fr_energy">    -16.51302794 </i>
    <i name="e_wo_entrp">    -16.51183092 </i>
    <i name="e_0_energy">    -16.51272868 </i>
   </energy>
  </scstep>
  <scstep>
   <time name="diag">    0.03    0.03</time>
   <time name="diis">    0.12    0.12</time>
   <time name="orth">    0.00    0.00</time>
   <time name="total">    0.22    0.22</time>
   <energy>
    <i name="e_fr_energy">    -16.51094279 </i>
    <i name="e_wo_entrp">    -16.51005725 </i>
    <i name="e_0_energy">    -16.51072140 </i>
   </energy>
  </scstep>
  <scstep>
   <time name="diag">    0.03    0.03</time>
   <time name="diis">    0.09    0.09</time>
   <time name="orth">    0.00    0.00</time>
   <time name="total">    0.20    0.20</time>
   <energy>
    <i name="e_fr_energy">    -16.51084074 </i>
    <i name="e_wo_entrp">    -16.51005096 </i>
    <i name="e_0_energy">    -16.51064329 </i>
   </energy>
  </scstep>
  <scstep>
   <time name="diag">    0.03    0.03</time>
   <time name="diis">    0.07    0.07</time>
   <time name="orth">    0.00    0.00</time>
   <time name="total">    0.15    0.15</time>
   <energy>
    <i name="alphaZ">    122.85278922 </i>
    <i name="ewald">  -1187.95348162 </i>
    <i name="hartreedc">   -187.62114568 </i>
    <i name="XCdc">      8.44146650 </i>
    <i name="pawpsdc">   1443.53863449 </i>
    <i name="pawaedc">  -1461.79874608 </i>
    <i name="eentropy">     -0.00077212 </i>
    <i name="bandstr">     57.44078885 </i>
    <i name="atom">   1188.58965621 </i>
    <i name="e_fr_energy">    -16.51081023 </i>
    <i name="e_wo_entrp">    -16.51003810 </i>
    <i name="e_0_energy">    -16.51061719 </i>
   </energy>
  </scstep>
  <structure>
   <crystal>
    <varray name="basis" >
     <v>       2.82323176      -0.00000000      -0.00000000 </v>
     <v>      -0.00000000       2.82323176       0.00000000 </v>
     <v>      -0.00000000       0.00000000       2.82323176 </v>
    </varray>
    <i name="volume">     22.50295706 </i>
    <varray name="rec_basis" >
     <v>       0.35420401       0.00000000       0.00000000 </v>
     <v>       0.00000000       0.35420401      -0.00000000 </v>
     <v>       0.00000000      -0.00000000       0.35420401 </v>
    </varray>
   </crystal>
   <varray name="positions" >
    <v>      -0.00000000      -0.00000000      -0.00000000 </v>
    <v>       0.50000000       0.50000000       0.50000000 </v>
   </varray>
  </structure>
  <varray name="forces" >
   <v>      -0.00000000      -0.00000000       0.00000000 </v>
   <v>       0.00000000       0.00000000      -0.00000000 </v>
  </varray>
  <varray name="stress" >
   <v>     -14.55069643       0.00000000       0.00000000 </v>
   <v>      -0.00000000     -14.55069643      -0.00000000 </v>
   <v>      -0.00000000       0.00000000     -14.55069643 </v>
  </varray>
  <energy>
   <i name="e_fr_energy">    -16.51081023 </i>
   <i name="e_wo_entrp">    -16.51061719 </i>
   <i name="e_0_energy">     -0.00077212 </i>
  </energy>
  <time name="totalsc">    1.12    1.13</time>
 </calculation>
 <calculation>
  <scstep>
   <time name="dav">    0.15    0.15</time>
   <time name="total">    0.22    0.22</time>
   <energy>
    <i name="alphaZ">    123.16568603 </i>
    <i name="ewald">  -1188.96116931 </i>
    <i name="hartreedc">   -187.81060395 </i>
    <i name="XCdc">      8.49413594 </i>
    <i name="pawpsdc">   1442.11256242 </i>
    <i name="pawaedc">  -1460.32096011 </i>
    <i name="eentropy">     -0.00103348 </i>
    <i name="bandstr">     58.21988460 </i>
    <i name="atom">   1188.58965621 </i>
    <i name="e_fr_energy">    -16.51184164 </i>
    <i name="e_wo_entrp">    -16.51080816 </i>
    <i name="e_0_energy">    -16.51158327 </i>
   </energy>
  </scstep>
  <scstep>
   <time name="diag">    0.03    0.03</time>
   <time name="diis">    0.12    0.11</time>
   <time name="orth">    0.00    0.00</time>
   <time name="total">    0.22    0.22</time>
   <energy>
    <i name="e_fr_energy">    -16.51104050 </i>
    <i name="e_wo_entrp">    -16.51037132 </i>
    <i name="e_0_energy">    -16.51087321 </i>
   </energy>
  </scstep>
  <scstep>
   <time name="diag">    0.03    0.03</time>
   <time name="diis">    0.07    0.07</time>
   <time name="orth">    0.00    0.00</time>
   <time name="total">    0.18    0.18</time>
   <energy>
    <i name="e_fr_energy">    -16.51101849 </i>
    <i name="e_wo_entrp">    -16.51030723 </i>
    <i name="e_0_energy">    -16.51084067 </i>
   </energy>
  </scstep>
  <scstep>
   <time name="diag">    0.03    0.03</time>
   <time name="diis">    0.06    0.06</time>
   <time name="orth">    0.00    0.00</time>
   <time name="total">    0.15    0.15</time>
   <energy>
    <i name="alphaZ">    123.16568603 </i>
    <i name="ewald">  -1188.96116931 </i>
    <i name="hartreedc">   -187.30583008 </i>
    <i name="XCdc">      8.46010602 </i>
    <i name="pawpsdc">   1443.40868164 </i>
    <i name="pawaedc">  -1461.60521377 </i>
    <i name="eentropy">     -0.00071167 </i>
    <i name="bandstr">     57.73778586 </i>
    <i name="atom">   1188.58965621 </i>
    <i name="e_fr_energy">    -16.51100906 </i>
    <i name="e_wo_entrp">    -16.51029739 </i>
    <i name="e_0_energy">    -16.51083114 </i>
   </energy>
  </scstep>
  <structure>
   <crystal>
    <varray name="basis" >
     <v>       2.82083897      -0.00000000      -0.00000000 </v>
     <v>      -0.00000000       2.82083897       0.00000000 </v>
     <v>      -0.00000000       0.00000000       2.82083897 </v>
    </varray>
    <i name="volume">     22.44578932 </i>
    <varray name="rec_basis" >
     <v>       0.35450446       0.00000000       0.00000000 </v>
     <v>       0.00000000       0.35450446      -0.00000000 </v>
     <v>       0.00000000      -0.00000000       0.35450446 </v>
    </varray>
   </crystal>
   <varray name="positions" >
    <v>      -0.00000000      -0.00000000      -0.00000000 </v>
    <v>       0.50000000       0.50000000       0.50000000 </v>
   </varray>
  </structure>
  <varray name="forces" >
   <v>       0.00000000       0.00000000       0.00000000 </v>
   <v>      -0.00000000      -0.00000000      -0.00000000 </v>
  </varray>
  <varray name="stress" >
   <v>       1.22128918      -0.00000000       0.00000000 </v>
   <v>       0.00000000       1.22128918       0.00000000 </v>
   <v>       0.00000000       0.00000000       1.22128918 </v>
  </varray>
  <energy>
   <i name="e_fr_energy">    -16.51100906 </i>
   <i name="e_wo_entrp">    -16.51083114 </i>
   <i name="e_0_energy">     -0.00071167 </i>
  </energy>
  <time name="totalsc">    1.09    1.09</time>
  <eigenvalues>
   <array>
    <dimension dim="1">band</dimension>
    <dimension dim="2">kpoint</dimension>
    <dimension dim="3">spin</dimension>
    <field>eigene</field>
    <field>occ</field>
    <set>
     <set comment="spin 1">
      <set comment="kpoint 1">
       <r>   -2.5522    1.0000 </r>
       <r>    1.0189    1.0000 </r>
       <r>    1.0189    1.0000 </r>
       <r>    3.5771    1.0000 </r>
       <r>    3.5771    1.0000 </r>
       <r>    3.5771    1.0000 </r>
       <r>    4.8385    1.0000 </r>
       <r>    4.8385    1.0000 </r>
       <r>    6.0277    0.0031 </r>
       <r>    6.0277    0.0031 </r>
       <r>    6.0277    0.0031 </r>
       <r>   15.9716    0.0000 </r>
       <r>   15.9716    0.0000 </r>
      </set>
      <set comment="kpoint 2">
       <r>   -1.7360    1.0000 </r>
       <r>    1.3503    1.0000 </r>
       <r>    1.3702    1.0000 </r>
       <r>    3.5859    1.0000 </r>
       <r>    3.5859    1.0000 </r>
       <r>    3.8018    1.0000 </r>
       <r>    4.4702    1.0000 </r>
       <r>    4.9826    1.0000 </r>
       <r>    5.4223    1.0000 </r>
       <r>    5.4223    1.0000 </r>
       <r>    5.7845    0.9962 </r>
       <r>   12.1209    0.0000 </r>
       <r>   17.4503    0.0000 </r>
      </set>
      <set comment="kpoint 3">
       <r>    0.3042    1.0000 </r>
       <r>    1.6742    1.0000 </r>
       <r>    2.3094    1.0000 </r>
       <r>    3.4995    1.0000 </r>
       <r>    3.7768    1.0000 </r>
       <r>    3.7768    1.0000 </r>
       <r>    4.3996    1.0000 </r>
       <r>    4.4101    1.0000 </r>
       <r>    4.4101    1.0000 </r>
       <r>    5.1569    1.0000 </r>
       <r>    5.4771    1.0000 </r>
       <r>    7.5716    0.0000 </r>
       <r>   20.9986    0.0000 </r>
      </set>
      <set comment="kpoint 4">
       <r>   -0.9965    1.0000 </r>
       <r>    1.5536    1.0000 </r>
       <r>    1.7720    1.0000 </r>
       <r>    3.1805    1.0000 </r>
       <r>    3.4650    1.0000 </r>
       <r>    4.4144    1.0000 </r>
       <r>    4.5189    1.0000 </r>
       <r>    4.6366    1.0000 </r>
       <r>    4.8822    1.0000 </r>
       <r>    4.9095    1.0000 </r>
       <r>    6.1213    0.0009 </r>
       <r>   12.3378    0.0000 </r>
       <r>   14.2647    0.0000 </r>
      </set>
      <set comment="kpoint 5">
       <r>    0.6613    1.0000 </r>
       <r>    1.6511    1.0000 </r>
       <r>    2.6314    1.0000 </r>
       <r>    3.0764    1.0000 </r>
       <r>    3.3368    1.0000 </r>
       <r>    3.5405    1.0000 </r>
       <r>    4.4535    1.0000 </r>
       <r>    4.5030    1.0000 </r>
       <r>    5.1973    1.0000 </r>
       <r>    5.3905    1.0000 </r>
       <r>    5.8722    0.2435 </r>
       <r>    8.1103    0.0000 </r>
       <r>   16.3285    0.0000 </r>
      </set>
      <set comment="kpoint 6">
       <r>    0.9167    1.0000 </r>
       <r>    1.1748    1.0000 </r>
       <r>    2.5794    1.0000 </r>
       <r>    2.7403    1.0000 </r>
       <r>    3.9545    1.0000 </r>
       <r>    4.7101    1.0000 </r>
       <r>    4.7412    1.0000 </r>
       <r>    5.0046    1.0000 </r>
       <r>    5.2507    1.0000 </r>
       <r>    5.9929   -0.0138 </r>
       <r>    6.2749    0.0000 </r>
       <r>    7.8473    0.0000 </r>
       <r>   13.4454    0.0000 </r>
      </set>
      <set comment="kpoint 7">
       <r>   -0.2847    1.0000 </r>
       <r>    1.9614    1.0000 </r>
       <r>    1.9614    1.0000 </r>
       <r>    3.0404    1.0000 </r>
       <r>    3.0404    1.0000 </r>
       <r>    3.5271    1.0000 </r>
       <r>    4.7958    1.0000 </r>
       <r>    4.7958    1.0000 </r>
       <r>    5.1214    1.0000 </r>
       <r>    5.5348    0.9998 </r>
       <r>    5.5348    0.9998 </r>
       <r>   13.6002    0.0000 </r>
       <r>   13.6002    0.0000 </r>
      </set>
      <set comment="kpoint 8">
       <r>    1.1750    1.0000 </r>
       <r>    2.0639    1.0000 </r>
       <r>    2.3842    1.0000 </r>
       <r>    2.7551    1.0000 </r>
       <r>    3.0826    1.0000 </r>
       <r>    3.2085    1.0000 </r>
       <r>    4.6222    1.0000 </r>
       <r>    4.7766    1.0000 </r>
       <r>    5.1237    1.0000 </r>
       <r>    5.5362    0.9998 </r>
       <r>    6.3625    0.0000 </r>
       <r>    9.1406    0.0000 </r>
       <r>   16.3948    0.0000 </r>
      </set>
      <set comment="kpoint 9">
       <r>    1.5062    1.0000 </r>
       <r>    1.6620    1.0000 </r>
       <r>    2.4989    1.0000 </r>
       <r>    2.5758    1.0000 </r>
       <r>    3.6067    1.0000 </r>
       <r>    3.7088    1.0000 </r>
       <r>    4.8904    1.0000 </r>
       <r>    4.9176    1.0000 </r>
       <r>    5.0187    1.0000 </r>
       <r>    5.3921    1.0000 </r>
       <r>    7.8893    0.0000 </r>
       <r>    9.8416    0.0000 </r>
       <r>   13.5767    0.0000 </r>
      </set>
      <set comment="kpoint 10">
       <r>    2.1690    1.0000 </r>
       <r>    2.4740    1.0000 </r>
       <r>    2.4740    1.0000 </r>
       <r>    2.8069    1.0000 </r>
       <r>    2.8565    1.0000 </r>
       <r>    2.8565    1.0000 </r>
       <r>    5.0359    1.0000 </r>
       <r>    5.0359    1.0000 </r>
       <r>    5.0694    1.0000 </r>
       <r>    5.0694    1.0000 </r>
       <r>   10.3239    0.0000 </r>
       <r>   13.1492    0.0000 </r>
       <r>   13.1492    0.0000 </r>
      </set>
     </set>
     <set comment="spin 2">
      <set comment="kpoint 1">
       <r>   -2.4000    1.0000 </r>
       <r>    2.7802    1.0000 </r>
       <r>    2.7802    1.0000 </r>
       <r>    5.4097    1.0000 </r>
       <r>    5.4097    1.0000 </r>
       <r>    5.4097    1.0000 </r>
       <r>    7.4820    0.0000 </r>
       <r>    7.4820    0.0000 </r>
       <r>    8.1362    0.0000 </r>
       <r>    8.1362    0.0000 </r>
       <r>    8.1362    0.0000 </r>
       <r>   16.2190    0.0000 </r>
       <r>   16.2190    0.0000 </r>
      </set>
      <set comment="kpoint 2">
       <r>   -1.5763    1.0000 </r>
       <r>    3.0179    1.0000 </r>
       <r>    3.1949    1.0000 </r>
       <r>    5.3926    1.0000 </r>
       <r>    5.3926    1.0000 </r>
       <r>    5.6573    0.9956 </r>
       <r>    7.0109    0.0000 </r>
       <r>    7.3735    0.0000 </r>
       <r>    7.3735    0.0000 </r>
       <r>    7.6533    0.0000 </r>
       <r>    7.8630    0.0000 </r>
       <r>   12.8734    0.0000 </r>
       <r>   17.8618    0.0000 </r>
      </set>
      <set comment="kpoint 3">
       <r>    0.5911    1.0000 </r>
       <r>    2.7320    1.0000 </r>
       <r>    4.3207    1.0000 </r>
       <r>    5.5472    0.9997 </r>
       <r>    5.5472    0.9997 </r>
       <r>    5.7853    0.9932 </r>
       <r>    6.2095    0.0000 </r>
       <r>    6.2095    0.0000 </r>
       <r>    6.3185    0.0000 </r>
       <r>    7.1608    0.0000 </r>
       <r>    8.0534    0.0000 </r>
       <r>    9.2485    0.0000 </r>
       <r>   21.5739    0.0000 </r>
      </set>
      <set comment="kpoint 4">
       <r>   -0.8122    1.0000 </r>
       <r>    3.2963    1.0000 </r>
       <r>    3.4707    1.0000 </r>
       <r>    4.9368    1.0000 </r>
       <r>    5.2250    1.0000 </r>
       <r>    6.3250    0.0000 </r>
       <r>    6.3521    0.0000 </r>
       <r>    6.7901    0.0000 </r>
       <r>    7.1533    0.0000 </r>
       <r>    7.5342    0.0000 </r>
       <r>    8.2405    0.0000 </r>
       <r>   13.1703    0.0000 </r>
       <r>   15.1354    0.0000 </r>
      </set>
      <set comment="kpoint 5">
       <r>    1.1047    1.0000 </r>
       <r>    2.8840    1.0000 </r>
       <r>    4.3599    1.0000 </r>
       <r>    4.7882    1.0000 </r>
       <r>    5.0194    1.0000 </r>
       <r>    5.2696    1.0000 </r>
       <r>    6.4949    0.0000 </r>
       <r>    6.7290    0.0000 </r>
       <r>    7.1908    0.0000 </r>
       <r>    7.9344    0.0000 </r>
       <r>    7.9513    0.0000 </r>
       <r>    9.6216    0.0000 </r>
       <r>   17.2254    0.0000 </r>
      </set>
      <set comment="kpoint 6">
       <r>    1.9193    1.0000 </r>
       <r>    2.4663    1.0000 </r>
       <r>    4.2313    1.0000 </r>
       <r>    4.3962    1.0000 </r>
       <r>    5.5079    1.0000 </r>
       <r>    5.7222    1.0335 </r>
       <r>    7.0444    0.0000 </r>
       <r>    7.2968    0.0000 </r>
       <r>    7.6994    0.0000 </r>
       <r>    8.0888    0.0000 </r>
       <r>    8.4121    0.0000 </r>
       <r>    9.0699    0.0000 </r>
       <r>   14.7205    0.0000 </r>
      </set>
      <set comment="kpoint 7">
       <r>   -0.0792    1.0000 </r>
       <r>    3.6725    1.0000 </r>
       <r>    3.6725    1.0000 </r>
       <r>    4.7651    1.0000 </r>
       <r>    4.7651    1.0000 </r>
       <r>    5.1626    1.0000 </r>
       <r>    7.0313    0.0000 </r>
       <r>    7.3857    0.0000 </r>
       <r>    7.3857    0.0000 </r>
       <r>    7.5831    0.0000 </r>
       <r>    7.5831    0.0000 </r>
       <r>   14.5229    0.0000 </r>
       <r>   14.5229    0.0000 </r>
      </set>
      <set comment="kpoint 8">
       <r>    1.6836    1.0000 </r>
       <r>    3.2718    1.0000 </r>
       <r>    4.0902    1.0000 </r>
       <r>    4.4391    1.0000 </r>
       <r>    4.6285    1.0000 </r>
       <r>    4.8424    1.0000 </r>
       <r>    6.9220    0.0000 </r>
       <r>    7.0240    0.0000 </r>
       <r>    7.6877    0.0000 </r>
       <r>    7.7512    0.0000 </r>
       <r>    8.2662    0.0000 </r>
       <r>   10.5621    0.0000 </r>
       <r>   17.2864    0.0000 </r>
      </set>
      <set comment="kpoint 9">
       <r>    2.5517    1.0000 </r>
       <r>    2.9854    1.0000 </r>
       <r>    4.0883    1.0000 </r>
       <r>    4.1581    1.0000 </r>
       <r>    4.8084    1.0000 </r>
       <r>    4.9535    1.0000 </r>
       <r>    7.3023    0.0000 </r>
       <r>    7.4279    0.0000 </r>
       <r>    7.7109    0.0000 </r>
       <r>    7.7918    0.0000 </r>
       <r>    9.4683    0.0000 </r>
       <r>   11.0087    0.0000 </r>
       <r>   14.7530    0.0000 </r>
      </set>
      <set comment="kpoint 10">
       <r>    3.5884    1.0000 </r>
       <r>    3.7979    1.0000 </r>
       <r>    3.9269    1.0000 </r>
       <r>    3.9269    1.0000 </r>
       <r>    4.1846    1.0000 </r>
       <r>    4.1846    1.0000 </r>
       <r>    7.6836    0.0000 </r>
       <r>    7.6836    0.0000 </r>
       <r>    7.7104    0.0000 </r>
       <r>    7.7104    0.0000 </r>
       <r>   11.6020    0.0000 </r>
       <r>   14.1137    0.0000 </r>
       <r>   14.1137    0.0000 </r>
      </set>
     </set>
    </set>
   </array>
  </eigenvalues>
  <separator name="orbital magnetization" >
   <v name="MAGDIPOLOUT">      0.00000000      0.00000000      0.00000000</v>
  </separator>
  <dos>
   <i name="efermi">      5.84675883 </i>
   <total>
    <array>
     <dimension dim="1">gridpoints</dimension>
     <dimension dim="2">spin</dimension>
     <field>energy</field>
     <field>total</field>
     <field>integrated</field>
     <set>
      <set comment="spin 1">
       <r>    -4.3769     0.0000     0.0000 </r>
       <r>    -4.2604     0.0000     0.0000 </r>
       <r>    -4.1440     0.0000     0.0000 </r>
       <r>    -4.0275     0.0000     0.0000 </r>
       <r>    -3.9111     0.0000     0.0000 </r>
       <r>    -3.7946     0.0000     0.0000 </r>
       <r>    -3.6782     0.0000     0.0000 </r>
       <r>    -3.5617     0.0000     0.0000 </r>
       <r>    -3.4453     0.0000     0.0000 </r>
       <r>    -3.3288     0.0000     0.0000 </r>
       <r>    -3.2124     0.0000     0.0000 </r>
       <r>    -3.0959     0.0000     0.0000 </r>
       <r>    -2.9795     0.0000     0.0000 </r>
       <r>    -2.8630     0.0000     0.0000 </r>
       <r>    -2.7466     0.0003     0.0000 </r>
       <r>    -2.6301    -0.0029    -0.0003 </r>
       <r>    -2.5137     0.0620     0.0069 </r>
       <r>    -2.3972     0.0099     0.0081 </r>
       <r>    -2.2808    -0.0006     0.0080 </r>
       <r>    -2.1643     0.0001     0.0080 </r>
       <r>    -2.0479     0.0001     0.0080 </r>
       <r>    -1.9314     0.0019     0.0082 </r>
       <r>    -1.8150    -0.0183     0.0061 </r>
       <r>    -1.6985     0.3693     0.0491 </r>
       <r>    -1.5821     0.0626     0.0564 </r>
       <r>    -1.4656    -0.0038     0.0560 </r>
       <r>    -1.3492     0.0004     0.0560 </r>
       <r>    -1.2327     0.0025     0.0563 </r>
       <r>    -1.1163    -0.0338     0.0524 </r>
       <r>    -0.9998     0.4149     0.1007 </r>
       <r>    -0.8834     0.4768     0.1562 </r>
       <r>    -0.7669    -0.0389     0.1517 </r>
       <r>    -0.6505     0.0029     0.1520 </r>
       <r>    -0.5340     0.0012     0.1521 </r>
       <r>    -0.4176    -0.0152     0.1504 </r>
       <r>    -0.3011     0.1952     0.1731 </r>
       <r>    -0.1846     0.3965     0.2193 </r>
       <r>    -0.0682    -0.0305     0.2157 </r>
       <r>     0.0483     0.0031     0.2161 </r>
       <r>     0.1647    -0.0087     0.2151 </r>
       <r>     0.2812     0.1175     0.2288 </r>
       <r>     0.3976     0.3261     0.2667 </r>
       <r>     0.5141    -0.0468     0.2613 </r>
       <r>     0.6305     0.3491     0.3019 </r>
       <r>     0.7470     1.4016     0.4651 </r>
       <r>     0.8634    -0.0512     0.4592 </r>
       <r>     0.9799     0.8264     0.5554 </r>
       <r>     1.0963     0.0152     0.5572 </r>
       <r>     1.2128     2.2058     0.8141 </r>
       <r>     1.3292     0.5530     0.8785 </r>
       <r>     1.4457     0.6591     0.9552 </r>
       <r>     1.5621     1.8722     1.1732 </r>
       <r>     1.6786     3.1655     1.5419 </r>
       <r>     1.7950     1.8025     1.7518 </r>
       <r>     1.9115     0.2015     1.7752 </r>
       <r>     2.0279     1.2936     1.9259 </r>
       <r>     2.1444     1.5992     2.1121 </r>
       <r>     2.2608     0.3440     2.1522 </r>
       <r>     2.3773     1.0168     2.2706 </r>
       <r>     2.4937     2.4821     2.5596 </r>
       <r>     2.6102     3.8594     3.0090 </r>
       <r>     2.7266     2.2743     3.2739 </r>
       <r>     2.8431     2.7576     3.5950 </r>
       <r>     2.9595     0.5453     3.6585 </r>
       <r>     3.0760     2.4810     3.9474 </r>
       <r>     3.1924     3.2263     4.3231 </r>
       <r>     3.3089     1.7451     4.5264 </r>
       <r>     3.4253     1.2505     4.6720 </r>
       <r>     3.5418     2.4542     4.9578 </r>
       <r>     3.6582     3.6709     5.3853 </r>
       <r>     3.7747     2.0644     5.6257 </r>
       <r>     3.8911     0.7903     5.7177 </r>
       <r>     4.0076     0.7333     5.8031 </r>
       <r>     4.1240     0.0436     5.8082 </r>
       <r>     4.2405     0.0089     5.8092 </r>
       <r>     4.3569    -0.0367     5.8049 </r>
       <r>     4.4734     3.8626     6.2547 </r>
       <r>     4.5898     3.2489     6.6331 </r>
       <r>     4.7063     2.4989     6.9241 </r>
       <r>     4.8227     3.4761     7.3289 </r>
       <r>     4.9392     4.6413     7.8694 </r>
       <r>     5.0556     4.5882     8.4037 </r>
       <r>     5.1721     4.1408     8.8858 </r>
       <r>     5.2885     2.0813     9.1282 </r>
       <r>     5.4050     2.4975     9.4190 </r>
       <r>     5.5214     3.3047     9.8039 </r>
       <r>     5.6379     1.8126    10.0150 </r>
       <r>     5.7543    -0.1200    10.0010 </r>
       <r>     5.8708     1.1936    10.1400 </r>
       <r>     5.9873     1.2947    10.2907 </r>
       <r>     6.1037     0.8991    10.3954 </r>
       <r>     6.2202     0.5603    10.4607 </r>
       <r>     6.3366     1.1709    10.5970 </r>
       <r>     6.4531     1.3434    10.7535 </r>
       <r>     6.5695    -0.0897    10.7430 </r>
       <r>     6.6860     0.0082    10.7440 </r>
       <r>     6.8024     0.0002    10.7440 </r>
       <r>     6.9189     0.0000    10.7440 </r>
       <r>     7.0353     0.0000    10.7440 </r>
       <r>     7.1518     0.0000    10.7440 </r>
       <r>     7.2682     0.0001    10.7440 </r>
       <r>     7.3847     0.0016    10.7442 </r>
       <r>     7.5011    -0.0108    10.7429 </r>
       <r>     7.6176     0.3907    10.7884 </r>
       <r>     7.7340    -0.0160    10.7866 </r>
       <r>     7.8505     0.7089    10.8691 </r>
       <r>     7.9669     1.8776    11.0878 </r>
       <r>     8.0834     0.3026    11.1230 </r>
       <r>     8.1998     1.3617    11.2816 </r>
       <r>     8.3163    -0.0904    11.2711 </r>
       <r>     8.4327     0.0079    11.2720 </r>
       <r>     8.5492     0.0002    11.2720 </r>
       <r>     8.6656     0.0000    11.2720 </r>
       <r>     8.7821     0.0000    11.2720 </r>
       <r>     8.8985     0.0043    11.2725 </r>
       <r>     9.0150    -0.0578    11.2658 </r>
       <r>     9.1314     0.7187    11.3495 </r>
       <r>     9.2479     1.0624    11.4732 </r>
       <r>     9.3643    -0.0854    11.4632 </r>
       <r>     9.4808     0.0065    11.4640 </r>
       <r>     9.5972     0.0041    11.4645 </r>
       <r>     9.7137    -0.0539    11.4582 </r>
       <r>     9.8301     0.6765    11.5370 </r>
       <r>     9.9466     1.1032    11.6654 </r>
       <r>    10.0630    -0.0870    11.6553 </r>
       <r>    10.1795    -0.0025    11.6550 </r>
       <r>    10.2959     0.1302    11.6702 </r>
       <r>    10.4124     0.4551    11.7232 </r>
       <r>    10.5288    -0.0300    11.7197 </r>
       <r>    10.6453     0.0026    11.7200 </r>
       <r>    10.7617     0.0001    11.7200 </r>
       <r>    10.8782     0.0000    11.7200 </r>
       <r>    10.9946     0.0000    11.7200 </r>
       <r>    11.1111     0.0000    11.7200 </r>
       <r>    11.2275     0.0000    11.7200 </r>
       <r>    11.3440     0.0000    11.7200 </r>
       <r>    11.4604     0.0000    11.7200 </r>
       <r>    11.5769     0.0000    11.7200 </r>
       <r>    11.6933     0.0000    11.7200 </r>
       <r>    11.8098     0.0001    11.7200 </r>
       <r>    11.9263     0.0019    11.7202 </r>
       <r>    12.0427    -0.0175    11.7182 </r>
       <r>    12.1592     0.3729    11.7616 </r>
       <r>    12.2756     0.0614    11.7688 </r>
       <r>    12.3921     0.7855    11.8602 </r>
       <r>    12.5085     0.0322    11.8640 </r>
       <r>    12.6250    -0.0002    11.8639 </r>
       <r>    12.7414     0.0004    11.8640 </r>
       <r>    12.8579     0.0005    11.8641 </r>
       <r>    12.9743     0.0013    11.8642 </r>
       <r>    13.0908     0.0192    11.8664 </r>
       <r>    13.2072     1.0572    11.9895 </r>
       <r>    13.3237    -0.0063    11.9888 </r>
       <r>    13.4401     0.3519    12.0298 </r>
       <r>    13.5566     1.1312    12.1615 </r>
       <r>    13.6730     2.2295    12.4211 </r>
       <r>    13.7895    -0.1253    12.4066 </r>
       <r>    13.9059     0.0121    12.4080 </r>
       <r>    14.0224     0.0025    12.4082 </r>
       <r>    14.1388    -0.0287    12.4049 </r>
       <r>    14.2553     0.3572    12.4465 </r>
       <r>    14.3717     0.5333    12.5086 </r>
       <r>    14.4882    -0.0428    12.5036 </r>
       <r>    14.6046     0.0032    12.5040 </r>
       <r>    14.7211     0.0000    12.5040 </r>
       <r>    14.8375     0.0000    12.5040 </r>
       <r>    14.9540     0.0000    12.5040 </r>
       <r>    15.0704     0.0000    12.5040 </r>
       <r>    15.1869     0.0000    12.5040 </r>
       <r>    15.3033     0.0000    12.5040 </r>
       <r>    15.4198     0.0000    12.5040 </r>
       <r>    15.5362     0.0000    12.5040 </r>
       <r>    15.6527     0.0000    12.5040 </r>
       <r>    15.7691     0.0007    12.5041 </r>
       <r>    15.8856    -0.0073    12.5032 </r>
       <r>    16.0020     0.1166    12.5168 </r>
       <r>    16.1185     0.0384    12.5213 </r>
       <r>    16.2349    -0.1037    12.5092 </r>
       <r>    16.3514     1.4690    12.6803 </r>
       <r>    16.4678     2.0004    12.9132 </r>
       <r>    16.5843    -0.0892    12.9028 </r>
       <r>    16.7007     0.0096    12.9040 </r>
       <r>    16.8172     0.0004    12.9040 </r>
       <r>    16.9336     0.0000    12.9040 </r>
       <r>    17.0501     0.0000    12.9040 </r>
       <r>    17.1665     0.0003    12.9040 </r>
       <r>    17.2830    -0.0007    12.9039 </r>
       <r>    17.3994     0.0237    12.9067 </r>
       <r>    17.5159     0.3922    12.9524 </r>
       <r>    17.6323    -0.0046    12.9518 </r>
       <r>    17.7488     0.0012    12.9520 </r>
       <r>    17.8653     0.0001    12.9520 </r>
       <r>    17.9817     0.0000    12.9520 </r>
       <r>    18.0982     0.0000    12.9520 </r>
       <r>    18.2146     0.0000    12.9520 </r>
       <r>    18.3311     0.0000    12.9520 </r>
       <r>    18.4475     0.0000    12.9520 </r>
       <r>    18.5640     0.0000    12.9520 </r>
       <r>    18.6804     0.0000    12.9520 </r>
       <r>    18.7969     0.0000    12.9520 </r>
       <r>    18.9133     0.0000    12.9520 </r>
       <r>    19.0298     0.0000    12.9520 </r>
       <r>    19.1462     0.0000    12.9520 </r>
       <r>    19.2627     0.0000    12.9520 </r>
       <r>    19.3791     0.0000    12.9520 </r>
       <r>    19.4956     0.0000    12.9520 </r>
       <r>    19.6120     0.0000    12.9520 </r>
       <r>    19.7285     0.0000    12.9520 </r>
       <r>    19.8449     0.0000    12.9520 </r>
       <r>    19.9614     0.0000    12.9520 </r>
       <r>    20.0778     0.0000    12.9520 </r>
       <r>    20.1943     0.0000    12.9520 </r>
       <r>    20.3107     0.0000    12.9520 </r>
       <r>    20.4272     0.0000    12.9520 </r>
       <r>    20.5436     0.0000    12.9520 </r>
       <r>    20.6601     0.0000    12.9520 </r>
       <r>    20.7765     0.0017    12.9522 </r>
       <r>    20.8930    -0.0218    12.9497 </r>
       <r>    21.0094     0.2731    12.9815 </r>
       <r>    21.1259     0.1719    13.0015 </r>
       <r>    21.2423    -0.0137    12.9999 </r>
       <r>    21.3588     0.0010    13.0000 </r>
       <r>    21.4752     0.0000    13.0000 </r>
       <r>    21.5917     0.0000    13.0000 </r>
       <r>    21.7081     0.0000    13.0000 </r>
       <r>    21.8246     0.0000    13.0000 </r>
       <r>    21.9410     0.0000    13.0000 </r>
       <r>    22.0575     0.0000    13.0000 </r>
       <r>    22.1739     0.0000    13.0000 </r>
       <r>    22.2904     0.0000    13.0000 </r>
       <r>    22.4068     0.0000    13.0000 </r>
       <r>    22.5233     0.0000    13.0000 </r>
       <r>    22.6397     0.0000    13.0000 </r>
       <r>    22.7562     0.0000    13.0000 </r>
       <r>    22.8726     0.0000    13.0000 </r>
       <r>    22.9891     0.0000    13.0000 </r>
       <r>    23.1055     0.0000    13.0000 </r>
       <r>    23.2220     0.0000    13.0000 </r>
       <r>    23.3384     0.0000    13.0000 </r>
       <r>    23.4549     0.0000    13.0000 </r>
       <r>    23.5713     0.0000    13.0000 </r>
       <r>    23.6878     0.0000    13.0000 </r>
       <r>    23.8042     0.0000    13.0000 </r>
       <r>    23.9207     0.0000    13.0000 </r>
       <r>    24.0372     0.0000    13.0000 </r>
       <r>    24.1536     0.0000    13.0000 </r>
       <r>    24.2701     0.0000    13.0000 </r>
       <r>    24.3865     0.0000    13.0000 </r>
       <r>    24.5030     0.0000    13.0000 </r>
       <r>    24.6194     0.0000    13.0000 </r>
       <r>    24.7359     0.0000    13.0000 </r>
       <r>    24.8523     0.0000    13.0000 </r>
       <r>    24.9688     0.0000    13.0000 </r>
       <r>    25.0852     0.0000    13.0000 </r>
       <r>    25.2017     0.0000    13.0000 </r>
       <r>    25.3181     0.0000    13.0000 </r>
       <r>    25.4346     0.0000    13.0000 </r>
       <r>    25.5510     0.0000    13.0000 </r>
       <r>    25.6675     0.0000    13.0000 </r>
       <r>    25.7839     0.0000    13.0000 </r>
       <r>    25.9004     0.0000    13.0000 </r>
       <r>    26.0168     0.0000    13.0000 </r>
       <r>    26.1333     0.0000    13.0000 </r>
       <r>    26.2497     0.0000    13.0000 </r>
       <r>    26.3662     0.0000    13.0000 </r>
       <r>    26.4826     0.0000    13.0000 </r>
       <r>    26.5991     0.0000    13.0000 </r>
       <r>    26.7155     0.0000    13.0000 </r>
       <r>    26.8320     0.0000    13.0000 </r>
       <r>    26.9484     0.0000    13.0000 </r>
       <r>    27.0649     0.0000    13.0000 </r>
       <r>    27.1813     0.0000    13.0000 </r>
       <r>    27.2978     0.0000    13.0000 </r>
       <r>    27.4142     0.0000    13.0000 </r>
       <r>    27.5307     0.0000    13.0000 </r>
       <r>    27.6471     0.0000    13.0000 </r>
       <r>    27.7636     0.0000    13.0000 </r>
       <r>    27.8800     0.0000    13.0000 </r>
       <r>    27.9965     0.0000    13.0000 </r>
       <r>    28.1129     0.0000    13.0000 </r>
       <r>    28.2294     0.0000    13.0000 </r>
       <r>    28.3458     0.0000    13.0000 </r>
       <r>    28.4623     0.0000    13.0000 </r>
       <r>    28.5787     0.0000    13.0000 </r>
       <r>    28.6952     0.0000    13.0000 </r>
       <r>    28.8116     0.0000    13.0000 </r>
       <r>    28.9281     0.0000    13.0000 </r>
       <r>    29.0445     0.0000    13.0000 </r>
       <r>    29.1610     0.0000    13.0000 </r>
       <r>    29.2774     0.0000    13.0000 </r>
       <r>    29.3939     0.0000    13.0000 </r>
       <r>    29.5103     0.0000    13.0000 </r>
       <r>    29.6268     0.0000    13.0000 </r>
       <r>    29.7432     0.0000    13.0000 </r>
       <r>    29.8597     0.0000    13.0000 </r>
       <r>    29.9762     0.0000    13.0000 </r>
       <r>    30.0926     0.0000    13.0000 </r>
       <r>    30.2091     0.0000    13.0000 </r>
       <r>    30.3255     0.0000    13.0000 </r>
       <r>    30.4420     0.0000    13.0000 </r>
       <r>    30.5584     0.0000    13.0000 </r>
      </set>
      <set comment="spin 2">
       <r>    -4.3769     0.0000     0.0000 </r>
       <r>    -4.2604     0.0000     0.0000 </r>
       <r>    -4.1440     0.0000     0.0000 </r>
       <r>    -4.0275     0.0000     0.0000 </r>
       <r>    -3.9111     0.0000     0.0000 </r>
       <r>    -3.7946     0.0000     0.0000 </r>
       <r>    -3.6782     0.0000     0.0000 </r>
       <r>    -3.5617     0.0000     0.0000 </r>
       <r>    -3.4453     0.0000     0.0000 </r>
       <r>    -3.3288     0.0000     0.0000 </r>
       <r>    -3.2124     0.0000     0.0000 </r>
       <r>    -3.0959     0.0000     0.0000 </r>
       <r>    -2.9795     0.0000     0.0000 </r>
       <r>    -2.8630     0.0000     0.0000 </r>
       <r>    -2.7466     0.0000     0.0000 </r>
       <r>    -2.6301     0.0002     0.0000 </r>
       <r>    -2.5137    -0.0032    -0.0003 </r>
       <r>    -2.3972     0.0393     0.0042 </r>
       <r>    -2.2808     0.0350     0.0083 </r>
       <r>    -2.1643    -0.0029     0.0080 </r>
       <r>    -2.0479     0.0002     0.0080 </r>
       <r>    -1.9314     0.0000     0.0080 </r>
       <r>    -1.8150     0.0012     0.0081 </r>
       <r>    -1.6985    -0.0159     0.0063 </r>
       <r>    -1.5821     0.1957     0.0291 </r>
       <r>    -1.4656     0.2500     0.0582 </r>
       <r>    -1.3492    -0.0203     0.0558 </r>
       <r>    -1.2327     0.0015     0.0560 </r>
       <r>    -1.1163     0.0002     0.0560 </r>
       <r>    -0.9998     0.0032     0.0564 </r>
       <r>    -0.8834    -0.0232     0.0537 </r>
       <r>    -0.7669     0.7704     0.1434 </r>
       <r>    -0.6505     0.0768     0.1524 </r>
       <r>    -0.5340    -0.0036     0.1519 </r>
       <r>    -0.4176     0.0007     0.1520 </r>
       <r>    -0.3011     0.0022     0.1523 </r>
       <r>    -0.1846    -0.0291     0.1489 </r>
       <r>    -0.0682     0.3651     0.1914 </r>
       <r>     0.0483     0.2282     0.2180 </r>
       <r>     0.1647    -0.0182     0.2158 </r>
       <r>     0.2812     0.0014     0.2160 </r>
       <r>     0.3976     0.0019     0.2162 </r>
       <r>     0.5141    -0.0170     0.2142 </r>
       <r>     0.6305     0.3738     0.2578 </r>
       <r>     0.7470     0.0564     0.2643 </r>
       <r>     0.8634     0.0011     0.2645 </r>
       <r>     0.9799    -0.0587     0.2576 </r>
       <r>     1.0963     0.7330     0.3430 </r>
       <r>     1.2128     1.0486     0.4651 </r>
       <r>     1.3292    -0.0845     0.4553 </r>
       <r>     1.4457     0.0112     0.4566 </r>
       <r>     1.5621    -0.0648     0.4490 </r>
       <r>     1.6786     0.7994     0.5421 </r>
       <r>     1.7950     0.9558     0.6534 </r>
       <r>     1.9115     0.2917     0.6874 </r>
       <r>     2.0279     0.5250     0.7485 </r>
       <r>     2.1444    -0.0418     0.7436 </r>
       <r>     2.2608     0.0079     0.7446 </r>
       <r>     2.3773    -0.0435     0.7395 </r>
       <r>     2.4937     0.7131     0.8225 </r>
       <r>     2.6102     1.7669     1.0283 </r>
       <r>     2.7266     0.2092     1.0526 </r>
       <r>     2.8431     0.5588     1.1177 </r>
       <r>     2.9595     1.9216     1.3415 </r>
       <r>     3.0760     1.6642     1.5353 </r>
       <r>     3.1924     0.0171     1.5373 </r>
       <r>     3.3089     2.2741     1.8021 </r>
       <r>     3.4253     0.6426     1.8769 </r>
       <r>     3.5418     0.7445     1.9636 </r>
       <r>     3.6582     0.9031     2.0688 </r>
       <r>     3.7747     0.9032     2.1740 </r>
       <r>     3.8911     0.5751     2.2409 </r>
       <r>     4.0076     0.7737     2.3310 </r>
       <r>     4.1240     3.1214     2.6945 </r>
       <r>     4.2405     3.5210     3.1046 </r>
       <r>     4.3569     1.5112     3.2805 </r>
       <r>     4.4734     3.1747     3.6502 </r>
       <r>     4.5898     0.4367     3.7011 </r>
       <r>     4.7063     1.2932     3.8517 </r>
       <r>     4.8227     4.0364     4.3217 </r>
       <r>     4.9392     3.2063     4.6951 </r>
       <r>     5.0556     2.8597     5.0281 </r>
       <r>     5.1721     0.4621     5.0819 </r>
       <r>     5.2885     2.2010     5.3382 </r>
       <r>     5.4050     1.1225     5.4690 </r>
       <r>     5.5214     1.1911     5.6077 </r>
       <r>     5.6379     1.0388     5.7286 </r>
       <r>     5.7543     1.0365     5.8493 </r>
       <r>     5.8708     0.4970     5.9072 </r>
       <r>     5.9873    -0.0272     5.9040 </r>
       <r>     6.1037    -0.0334     5.9001 </r>
       <r>     6.2202     0.4552     5.9532 </r>
       <r>     6.3366     1.4932     6.1270 </r>
       <r>     6.4531     1.2309     6.2704 </r>
       <r>     6.5695     1.4294     6.4368 </r>
       <r>     6.6860     0.0871     6.4470 </r>
       <r>     6.8024     2.0363     6.6841 </r>
       <r>     6.9189     0.9469     6.7944 </r>
       <r>     7.0353     2.9835     7.1418 </r>
       <r>     7.1518     2.3355     7.4138 </r>
       <r>     7.2682     2.4859     7.7033 </r>
       <r>     7.3847     3.3064     8.0883 </r>
       <r>     7.5011     2.5930     8.3902 </r>
       <r>     7.6176     1.3810     8.5511 </r>
       <r>     7.7340     6.6169     9.3216 </r>
       <r>     7.8505     3.8804     9.7735 </r>
       <r>     7.9669     2.6900    10.0867 </r>
       <r>     8.0834     1.6672    10.2809 </r>
       <r>     8.1998     0.8027    10.3743 </r>
       <r>     8.3163     2.2307    10.6341 </r>
       <r>     8.4327     0.7037    10.7161 </r>
       <r>     8.5492     0.2565    10.7459 </r>
       <r>     8.6656    -0.0182    10.7438 </r>
       <r>     8.7821     0.0020    10.7440 </r>
       <r>     8.8985    -0.0000    10.7440 </r>
       <r>     9.0150     0.0301    10.7475 </r>
       <r>     9.1314     0.7719    10.8374 </r>
       <r>     9.2479     0.2302    10.8642 </r>
       <r>     9.3643     0.1417    10.8807 </r>
       <r>     9.4808     1.0695    11.0053 </r>
       <r>     9.5972     1.1075    11.1343 </r>
       <r>     9.7137     1.2631    11.2814 </r>
       <r>     9.8301    -0.0883    11.2711 </r>
       <r>     9.9466     0.0078    11.2720 </r>
       <r>    10.0630     0.0001    11.2720 </r>
       <r>    10.1795     0.0000    11.2720 </r>
       <r>    10.2959     0.0020    11.2722 </r>
       <r>    10.4124    -0.0203    11.2699 </r>
       <r>    10.5288     0.3091    11.3059 </r>
       <r>    10.6453     1.4324    11.4727 </r>
       <r>    10.7617    -0.0789    11.4635 </r>
       <r>    10.8782    -0.0416    11.4586 </r>
       <r>    10.9946     0.6291    11.5319 </r>
       <r>    11.1111     1.1486    11.6657 </r>
       <r>    11.2275    -0.0900    11.6552 </r>
       <r>    11.3440     0.0079    11.6561 </r>
       <r>    11.4604    -0.0105    11.6549 </r>
       <r>    11.5769     0.1457    11.6718 </r>
       <r>    11.6933     0.4416    11.7233 </r>
       <r>    11.8098    -0.0306    11.7197 </r>
       <r>    11.9263     0.0026    11.7200 </r>
       <r>    12.0427     0.0000    11.7200 </r>
       <r>    12.1592     0.0000    11.7200 </r>
       <r>    12.2756     0.0000    11.7200 </r>
       <r>    12.3921     0.0000    11.7200 </r>
       <r>    12.5085     0.0000    11.7200 </r>
       <r>    12.6250     0.0009    11.7201 </r>
       <r>    12.7414    -0.0117    11.7187 </r>
       <r>    12.8579     0.1505    11.7363 </r>
       <r>    12.9743     0.2974    11.7709 </r>
       <r>    13.0908    -0.0601    11.7639 </r>
       <r>    13.2072     0.7378    11.8498 </r>
       <r>    13.3237     0.1288    11.8648 </r>
       <r>    13.4401    -0.0079    11.8639 </r>
       <r>    13.5566     0.0009    11.8640 </r>
       <r>    13.6730     0.0000    11.8640 </r>
       <r>    13.7895     0.0001    11.8640 </r>
       <r>    13.9059     0.0052    11.8646 </r>
       <r>    14.0224    -0.0613    11.8575 </r>
       <r>    14.1388     0.8836    11.9604 </r>
       <r>    14.2553     0.2921    11.9944 </r>
       <r>    14.3717    -0.0335    11.9905 </r>
       <r>    14.4882     0.1990    12.0137 </r>
       <r>    14.6046     0.9066    12.1193 </r>
       <r>    14.7211     0.7279    12.2040 </r>
       <r>    14.8375     1.8618    12.4208 </r>
       <r>    14.9540    -0.1184    12.4070 </r>
       <r>    15.0704     0.0031    12.4074 </r>
       <r>    15.1869     0.7857    12.4989 </r>
       <r>    15.3033     0.0445    12.5041 </r>
       <r>    15.4198    -0.0012    12.5039 </r>
       <r>    15.5362     0.0005    12.5040 </r>
       <r>    15.6527     0.0000    12.5040 </r>
       <r>    15.7691     0.0000    12.5040 </r>
       <r>    15.8856     0.0000    12.5040 </r>
       <r>    16.0020     0.0006    12.5041 </r>
       <r>    16.1185    -0.0076    12.5032 </r>
       <r>    16.2349     0.0984    12.5146 </r>
       <r>    16.3514     0.0496    12.5204 </r>
       <r>    16.4678    -0.0039    12.5200 </r>
       <r>    16.5843     0.0003    12.5200 </r>
       <r>    16.7007     0.0000    12.5200 </r>
       <r>    16.8172     0.0000    12.5200 </r>
       <r>    16.9336     0.0007    12.5201 </r>
       <r>    17.0501     0.0071    12.5209 </r>
       <r>    17.1665    -0.0418    12.5160 </r>
       <r>    17.2830     2.4096    12.7966 </r>
       <r>    17.3994     0.9920    12.9122 </r>
       <r>    17.5159    -0.0766    12.9032 </r>
       <r>    17.6323     0.0080    12.9042 </r>
       <r>    17.7488    -0.0195    12.9019 </r>
       <r>    17.8653     0.2393    12.9298 </r>
       <r>    17.9817     0.2066    12.9538 </r>
       <r>    18.0982    -0.0168    12.9519 </r>
       <r>    18.2146     0.0012    12.9520 </r>
       <r>    18.3311     0.0000    12.9520 </r>
       <r>    18.4475     0.0000    12.9520 </r>
       <r>    18.5640     0.0000    12.9520 </r>
       <r>    18.6804     0.0000    12.9520 </r>
       <r>    18.7969     0.0000    12.9520 </r>
       <r>    18.9133     0.0000    12.9520 </r>
       <r>    19.0298     0.0000    12.9520 </r>
       <r>    19.1462     0.0000    12.9520 </r>
       <r>    19.2627     0.0000    12.9520 </r>
       <r>    19.3791     0.0000    12.9520 </r>
       <r>    19.4956     0.0000    12.9520 </r>
       <r>    19.6120     0.0000    12.9520 </r>
       <r>    19.7285     0.0000    12.9520 </r>
       <r>    19.8449     0.0000    12.9520 </r>
       <r>    19.9614     0.0000    12.9520 </r>
       <r>    20.0778     0.0000    12.9520 </r>
       <r>    20.1943     0.0000    12.9520 </r>
       <r>    20.3107     0.0000    12.9520 </r>
       <r>    20.4272     0.0000    12.9520 </r>
       <r>    20.5436     0.0000    12.9520 </r>
       <r>    20.6601     0.0000    12.9520 </r>
       <r>    20.7765     0.0000    12.9520 </r>
       <r>    20.8930     0.0000    12.9520 </r>
       <r>    21.0094     0.0000    12.9520 </r>
       <r>    21.1259     0.0000    12.9520 </r>
       <r>    21.2423     0.0000    12.9520 </r>
       <r>    21.3588     0.0018    12.9522 </r>
       <r>    21.4752    -0.0230    12.9495 </r>
       <r>    21.5917     0.3030    12.9848 </r>
       <r>    21.7081     0.1404    13.0012 </r>
       <r>    21.8246    -0.0108    12.9999 </r>
       <r>    21.9410     0.0008    13.0000 </r>
       <r>    22.0575     0.0000    13.0000 </r>
       <r>    22.1739     0.0000    13.0000 </r>
       <r>    22.2904     0.0000    13.0000 </r>
       <r>    22.4068     0.0000    13.0000 </r>
       <r>    22.5233     0.0000    13.0000 </r>
       <r>    22.6397     0.0000    13.0000 </r>
       <r>    22.7562     0.0000    13.0000 </r>
       <r>    22.8726     0.0000    13.0000 </r>
       <r>    22.9891     0.0000    13.0000 </r>
       <r>    23.1055     0.0000    13.0000 </r>
       <r>    23.2220     0.0000    13.0000 </r>
       <r>    23.3384     0.0000    13.0000 </r>
       <r>    23.4549     0.0000    13.0000 </r>
       <r>    23.5713     0.0000    13.0000 </r>
       <r>    23.6878     0.0000    13.0000 </r>
       <r>    23.8042     0.0000    13.0000 </r>
       <r>    23.9207     0.0000    13.0000 </r>
       <r>    24.0372     0.0000    13.0000 </r>
       <r>    24.1536     0.0000    13.0000 </r>
       <r>    24.2701     0.0000    13.0000 </r>
       <r>    24.3865     0.0000    13.0000 </r>
       <r>    24.5030     0.0000    13.0000 </r>
       <r>    24.6194     0.0000    13.0000 </r>
       <r>    24.7359     0.0000    13.0000 </r>
       <r>    24.8523     0.0000    13.0000 </r>
       <r>    24.9688     0.0000    13.0000 </r>
       <r>    25.0852     0.0000    13.0000 </r>
       <r>    25.2017     0.0000    13.0000 </r>
       <r>    25.3181     0.0000    13.0000 </r>
       <r>    25.4346     0.0000    13.0000 </r>
       <r>    25.5510     0.0000    13.0000 </r>
       <r>    25.6675     0.0000    13.0000 </r>
       <r>    25.7839     0.0000    13.0000 </r>
       <r>    25.9004     0.0000    13.0000 </r>
       <r>    26.0168     0.0000    13.0000 </r>
       <r>    26.1333     0.0000    13.0000 </r>
       <r>    26.2497     0.0000    13.0000 </r>
       <r>    26.3662     0.0000    13.0000 </r>
       <r>    26.4826     0.0000    13.0000 </r>
       <r>    26.5991     0.0000    13.0000 </r>
       <r>    26.7155     0.0000    13.0000 </r>
       <r>    26.8320     0.0000    13.0000 </r>
       <r>    26.9484     0.0000    13.0000 </r>
       <r>    27.0649     0.0000    13.0000 </r>
       <r>    27.1813     0.0000    13.0000 </r>
       <r>    27.2978     0.0000    13.0000 </r>
       <r>    27.4142     0.0000    13.0000 </r>
       <r>    27.5307     0.0000    13.0000 </r>
       <r>    27.6471     0.0000    13.0000 </r>
       <r>    27.7636     0.0000    13.0000 </r>
       <r>    27.8800     0.0000    13.0000 </r>
       <r>    27.9965     0.0000    13.0000 </r>
       <r>    28.1129     0.0000    13.0000 </r>
       <r>    28.2294     0.0000    13.0000 </r>
       <r>    28.3458     0.0000    13.0000 </r>
       <r>    28.4623     0.0000    13.0000 </r>
       <r>    28.5787     0.0000    13.0000 </r>
       <r>    28.6952     0.0000    13.0000 </r>
       <r>    28.8116     0.0000    13.0000 </r>
       <r>    28.9281     0.0000    13.0000 </r>
       <r>    29.0445     0.0000    13.0000 </r>
       <r>    29.1610     0.0000    13.0000 </r>
       <r>    29.2774     0.0000    13.0000 </r>
       <r>    29.3939     0.0000    13.0000 </r>
       <r>    29.5103     0.0000    13.0000 </r>
       <r>    29.6268     0.0000    13.0000 </r>
       <r>    29.7432     0.0000    13.0000 </r>
       <r>    29.8597     0.0000    13.0000 </r>
       <r>    29.9762     0.0000    13.0000 </r>
       <r>    30.0926     0.0000    13.0000 </r>
       <r>    30.2091     0.0000    13.0000 </r>
       <r>    30.3255     0.0000    13.0000 </r>
       <r>    30.4420     0.0000    13.0000 </r>
       <r>    30.5584     0.0000    13.0000 </r>
      </set>
     </set>
    </array>
   </total>
  </dos>
 </calculation>
 <structure name="finalpos" >
  <crystal>
   <varray name="basis" >
    <v>       2.82083897      -0.00000000      -0.00000000 </v>
    <v>      -0.00000000       2.82083897       0.00000000 </v>
    <v>      -0.00000000       0.00000000       2.82083897 </v>
   </varray>
   <i name="volume">     22.44578932 </i>
   <varray name="rec_basis" >
    <v>       0.35450446       0.00000000       0.00000000 </v>
    <v>       0.00000000       0.35450446      -0.00000000 </v>
    <v>       0.00000000      -0.00000000       0.35450446 </v>
   </varray>
  </crystal>
  <varray name="positions" >
   <v>      -0.00000000      -0.00000000      -0.00000000 </v>
   <v>       0.50000000       0.50000000       0.50000000 </v>
  </varray>
 </structure>
</modeling>
