Crystal                                 
           1
     2.840000    0.000000    0.000000
     0.000000    2.840000    0.000000
     0.000000    0.000000    2.840000
   Fe
   2
Crystal                                 
           1
     2.805167   -0.000000   -0.000000
    -0.000000    2.805167    0.000000
    -0.000000    0.000000    2.805167
   Fe
   2
Direct configuration=     1
   0.00000000  0.00000000  0.00000000
   0.50000000  0.50000000  0.50000000
Crystal                                 
           1
     2.819522   -0.000000   -0.000000
    -0.000000    2.819522    0.000000
    -0.000000    0.000000    2.819522
   Fe
   2
Direct configuration=     2
  -0.00000000 -0.00000000 -0.00000000
   0.50000000  0.50000000  0.50000000
Crystal                                 
           1
     2.823232   -0.000000   -0.000000
    -0.000000    2.823232    0.000000
    -0.000000    0.000000    2.823232
   Fe
   2
Direct configuration=     3
  -0.00000000 -0.00000000 -0.00000000
   0.50000000  0.50000000  0.50000000
Crystal                                 
           1
     2.820839   -0.000000   -0.000000
    -0.000000    2.820839    0.000000
    -0.000000    0.000000    2.820839
   Fe
   2
Direct configuration=     4
  -0.00000000 -0.00000000 -0.00000000
   0.50000000  0.50000000  0.50000000
Crystal                                 
           1
     2.820839   -0.000000   -0.000000
    -0.000000    2.820839    0.000000
    -0.000000    0.000000    2.820839
   Fe
   2
Direct configuration=     5
  -0.00000000 -0.00000000 -0.00000000
   0.50000000  0.50000000  0.50000000
