    2    2  300    1
  0.5461575E+03  0.1010000E-08  0.1030000E-08  0.1050000E-08  0.5000000E-15
  1.000000000000000E-004
  CAR 
 Hello World                             
   14    1   11
 
  0.0000000E+00  0.0000000E+00  0.0000000E+00  0.1000000E+01
   1      -23.221951
   2      -18.959476
   3      -11.657707
   4       -9.625770
   5       -9.625750
   6       -6.959691
   7       -6.959672
   8       -3.933677
   9       -0.314710
  10        0.984733
  11        1.138223
