 running on    1 total cores
 distrk:  each k-point on    1 cores,    1 groups
 distr:  one band on    1 cores,    1 groups
 using from now: INCAR     
 vasp.5.3.3 18Dez12 (build Sep  7 2015 22:32:56) complex                        
  
 POSCAR found :  1 types and       2 ions
 LDA part: xc-table for Pade appr. of Perdew
 POSCAR, INCAR and KPOINTS ok, starting setup
 WARNING: small aliasing (wrap around) errors must be expected
 FFT: planning ...
 WAVECAR not read
 entering main loop
       N       E                     dE             d eps       ncg     rms          rms(c)
DAV:   1     0.115280801198E+03    0.11528E+03   -0.24817E+03    22   0.546E+02
DAV:   2     0.258428969981E+02   -0.89438E+02   -0.87644E+02    41   0.981E+01
DAV:   3    -0.239441596061E+01   -0.28237E+02   -0.28181E+02    28   0.843E+01
DAV:   4    -0.387143099061E+01   -0.14770E+01   -0.14761E+01    33   0.247E+01
DAV:   5    -0.387648160579E+01   -0.50506E-02   -0.50506E-02    30   0.129E+00    0.107E+01
RMM:   6    -0.365882837926E+01    0.21765E+00   -0.14109E-01    22   0.263E+00    0.659E+00
RMM:   7    -0.357185483580E+01    0.86974E-01   -0.28655E-01    22   0.380E+00    0.404E-01
RMM:   8    -0.356979042057E+01    0.20644E-02   -0.10603E-02    22   0.792E-01    0.916E-02
RMM:   9    -0.357073194319E+01   -0.94152E-03   -0.59218E-04    21   0.207E-01    0.413E-02
RMM:  10    -0.357168501886E+01   -0.95308E-03   -0.22250E-04    15   0.985E-02    0.178E-02
RMM:  11    -0.357264518843E+01   -0.96017E-03   -0.13817E-04    15   0.692E-02    0.141E-02
RMM:  12    -0.357361104030E+01   -0.96585E-03   -0.24078E-04    16   0.886E-02    0.178E-02
RMM:  13    -0.357391814865E+01   -0.30711E-03   -0.10044E-04    15   0.602E-02    0.511E-03
RMM:  14    -0.357405983322E+01   -0.14168E-03   -0.27224E-05    14   0.343E-02    0.616E-03
RMM:  15    -0.357413210628E+01   -0.72273E-04   -0.92071E-06    13   0.215E-02
   1 F= -.35741321E+01 E0= -.35741321E+01  d E =-.357413E+01
 BRION: g(F)=  0.159E-02 g(S)=  0.000E+00
 bond charge predicted
       N       E                     dE             d eps       ncg     rms          rms(c)
DAV:   1    -0.357386915074E+01    0.19068E-03   -0.16936E-01    28   0.246E+00    0.614E-01
RMM:   2    -0.357440624074E+01   -0.53709E-03   -0.55668E-03    22   0.635E-01    0.155E-01
RMM:   3    -0.357438680905E+01    0.19432E-04   -0.14077E-04    15   0.108E-01
   2 F= -.35743868E+01 E0= -.35743868E+01  d E =-.254703E-03
 BRION: g(F)=  0.899E-03 g(S)=  0.000E+00 retain N=  1 mean eig= 0.57
 eig:   0.571
 bond charge predicted
       N       E                     dE             d eps       ncg     rms          rms(c)
DAV:   1    -0.357455507055E+01   -0.14883E-03   -0.33698E-02    28   0.110E+00    0.277E-01
RMM:   2    -0.357464599517E+01   -0.90925E-04   -0.10837E-03    20   0.285E-01    0.733E-02
RMM:   3    -0.357464167101E+01    0.43242E-05   -0.41235E-05    14   0.586E-02
   3 F= -.35746417E+01 E0= -.35746417E+01  d E =-.254862E-03
 BRION: g(F)=  0.561E-06 g(S)=  0.000E+00 retain N=  1 mean eig= 0.59
 eig:   0.586
 reached required accuracy - stopping structural energy minimisation
