<?xml version="1.0" encoding="ISO-8859-1"?>
<modeling>
 <generator>
  <i name="program" type="string">vasp </i>
  <i name="version" type="string">5.3.3  </i>
  <i name="subversion" type="string">18Dez12 (build Sep  7 2015 22:32:56) complex                          parallel </i>
  <i name="platform" type="string">LinuxIFC </i>
  <i name="date" type="string">2022 12 08 </i>
  <i name="time" type="string">16:47:01 </i>
 </generator>
 <incar>
  <i type="string" name="SYSTEM"> Hello World</i>
  <i type="string" name="PREC">normal</i>
  <i type="string" name="ALGO"> fast    ! algorithm for electronic opti</i>
  <i type="int" name="IBRION">     1</i>
  <i name="EDIFF">      0.00010000</i>
  <i name="EDIFFG">     -0.01000000</i>
  <i type="int" name="NSW">   300</i>
  <i name="ENCUT">    400.00000000</i>
  <i type="int" name="ISMEAR">     0</i>
  <i type="logical" name="LWAVE"> F  </i>
  <i type="logical" name="LCHARG"> F  </i>
 </incar>
 <kpoints>
  <generation param="Gamma">
   <v type="int" name="divisions">       1        1        1 </v>
   <v name="usershift">      0.00000000       0.00000000       0.00000000 </v>
   <v name="genvec1">      1.00000000       0.00000000       0.00000000 </v>
   <v name="genvec2">      0.00000000       1.00000000       0.00000000 </v>
   <v name="genvec3">      0.00000000       0.00000000       1.00000000 </v>
   <v name="shift">      0.00000000       0.00000000       0.00000000 </v>
  </generation>
  <varray name="kpointlist" >
   <v>       0.00000000       0.00000000       0.00000000 </v>
  </varray>
  <varray name="weights" >
   <v>       1.00000000 </v>
  </varray>
 </kpoints>
 <parameters>
  <separator name="general" >
   <i type="string" name="SYSTEM">Hello World</i>
   <i type="logical" name="LCOMPAT"> F  </i>
  </separator>
  <separator name="electronic" >
   <i type="string" name="PREC">normal</i>
   <i name="ENMAX">    400.00000000</i>
   <i name="ENAUG">    356.19200000</i>
   <i name="EDIFF">      0.00010000</i>
   <i type="int" name="IALGO">    68</i>
   <i type="int" name="IWAVPR">    11</i>
   <i type="int" name="NBANDS">    11</i>
   <i name="NELECT">     14.00000000</i>
   <i type="int" name="TURBO">     0</i>
   <i type="int" name="IRESTART">     0</i>
   <i type="int" name="NREBOOT">     0</i>
   <i type="int" name="NMIN">     0</i>
   <i name="EREF">      0.00000000</i>
   <separator name="electronic smearing" >
    <i type="int" name="ISMEAR">     0</i>
    <i name="SIGMA">      0.20000000</i>
    <i name="KSPACING">      0.50000000</i>
    <i type="logical" name="KGAMMA"> T  </i>
   </separator>
   <separator name="electronic projectors" >
    <i type="logical" name="LREAL"> F  </i>
    <v name="ROPT">      0.00000000</v>
    <i type="int" name="LMAXPAW">  -100</i>
    <i type="int" name="LMAXMIX">     2</i>
    <i type="logical" name="NLSPLINE"> F  </i>
   </separator>
   <separator name="electronic startup" >
    <i type="int" name="ISTART">     0</i>
    <i type="int" name="ICHARG">     2</i>
    <i type="int" name="INIWAV">     1</i>
   </separator>
   <separator name="electronic spin" >
    <i type="int" name="ISPIN">     1</i>
    <i type="logical" name="LNONCOLLINEAR"> F  </i>
    <v name="MAGMOM">      1.00000000      1.00000000</v>
    <i name="NUPDOWN">     -1.00000000</i>
    <i type="logical" name="LSORBIT"> F  </i>
    <v name="SAXIS">      0.00000000      0.00000000      1.00000000</v>
    <i type="logical" name="LSPIRAL"> F  </i>
    <v name="QSPIRAL">      0.00000000      0.00000000      0.00000000</v>
    <i type="logical" name="LZEROZ"> F  </i>
   </separator>
   <separator name="electronic exchange-correlation" >
    <i type="logical" name="LASPH"> F  </i>
    <i type="logical" name="LMETAGGA"> F  </i>
   </separator>
   <separator name="electronic convergence" >
    <i type="int" name="NELM">    60</i>
    <i type="int" name="NELMDL">    -5</i>
    <i type="int" name="NELMIN">     2</i>
    <i name="ENINI">    400.00000000</i>
    <separator name="electronic convergence detail" >
     <i type="logical" name="LDIAG"> T  </i>
     <i type="logical" name="LSUBROT"> T  </i>
     <i name="WEIMIN">      0.00100000</i>
     <i name="EBREAK">      0.00000227</i>
     <i name="DEPER">      0.30000000</i>
     <i type="int" name="NRMM">     4</i>
     <i name="TIME">      0.40000000</i>
    </separator>
   </separator>
   <separator name="electronic mixer" >
    <i name="AMIX">      0.40000000</i>
    <i name="BMIX">      1.00000000</i>
    <i name="AMIN">      0.10000000</i>
    <i name="AMIX_MAG">      1.60000000</i>
    <i name="BMIX_MAG">      1.00000000</i>
    <separator name="electronic mixer details" >
     <i type="int" name="IMIX">     4</i>
     <i type="int" name="MAXMIX">   -45</i>
     <i name="WC">    100.00000000</i>
     <i type="int" name="INIMIX">     1</i>
     <i type="int" name="MIXPRE">     1</i>
     <i type="int" name="MREMOVE">     5</i>
    </separator>
   </separator>
   <separator name="electronic dipolcorrection" >
    <i type="logical" name="LDIPOL"> F  </i>
    <i type="logical" name="LMONO"> F  </i>
    <i type="int" name="IDIPOL">     0</i>
    <i name="EPSILON">      1.00000000</i>
    <v name="DIPOL">   -100.00000000   -100.00000000   -100.00000000</v>
    <i name="EFIELD">      0.00000000</i>
   </separator>
  </separator>
  <separator name="grids" >
   <i type="int" name="NGX">    50</i>
   <i type="int" name="NGY">    50</i>
   <i type="int" name="NGZ">    54</i>
   <i type="int" name="NGXF">   100</i>
   <i type="int" name="NGYF">   100</i>
   <i type="int" name="NGZF">   108</i>
   <i type="logical" name="ADDGRID"> F  </i>
  </separator>
  <separator name="ionic" >
   <i type="int" name="NSW">   300</i>
   <i type="int" name="IBRION">     1</i>
   <i type="int" name="ISIF">     2</i>
   <i name="PSTRESS">      0.00000000</i>
   <i name="EDIFFG">     -0.01000000</i>
   <i type="int" name="NFREE">     0</i>
   <i name="POTIM">      0.50000000</i>
   <i name="SMASS">     -3.00000000</i>
   <i name="SCALEE">      1.00000000</i>
  </separator>
  <separator name="ionic md" >
   <i name="TEBEG">      0.00010000</i>
   <i name="TEEND">      0.00010000</i>
   <i type="int" name="NBLOCK">     1</i>
   <i type="int" name="KBLOCK">   300</i>
   <i type="int" name="NPACO">   256</i>
   <i name="APACO">     16.00000000</i>
  </separator>
  <separator name="symmetry" >
   <i type="int" name="ISYM">     2</i>
   <i name="SYMPREC">      0.00001000</i>
  </separator>
  <separator name="dos" >
   <i type="logical" name="LORBIT"> F  </i>
   <v name="RWIGS">     -1.00000000</v>
   <i type="int" name="NEDOS">   301</i>
   <i name="EMIN">     10.00000000</i>
   <i name="EMAX">    -10.00000000</i>
   <i name="EFERMI">      0.00000000</i>
  </separator>
  <separator name="writing" >
   <i type="int" name="NWRITE">     2</i>
   <i type="logical" name="LWAVE"> F  </i>
   <i type="logical" name="LCHARG"> F  </i>
   <i type="logical" name="LPARD"> F  </i>
   <i type="logical" name="LVTOT"> F  </i>
   <i type="logical" name="LVHAR"> F  </i>
   <i type="logical" name="LELF"> F  </i>
   <i type="logical" name="LOPTICS"> F  </i>
   <v name="STM">      0.00000000      0.00000000      0.00000000      0.00000000      0.00000000      0.00000000      0.00000000</v>
  </separator>
  <separator name="performance" >
   <i type="int" name="NPAR">     1</i>
   <i type="int" name="NSIM">     4</i>
   <i type="int" name="NBLK">    -1</i>
   <i type="logical" name="LPLANE"> T  </i>
   <i type="logical" name="LSCALAPACK"> F  </i>
   <i type="logical" name="LSCAAWARE"> F  </i>
   <i type="logical" name="LSCALU"> F  </i>
   <i type="logical" name="LASYNC"> F  </i>
   <i type="logical" name="LORBITALREAL"> F  </i>
  </separator>
  <separator name="miscellaneous" >
   <i type="int" name="IDIOT">     3</i>
   <i type="logical" name="LMUSIC"> F  </i>
   <v name="POMASS">     35.45300000</v>
   <v name="DARWINR">      0.00000000</v>
   <v name="DARWINV">      1.00000000</v>
   <i type="logical" name="LCORR"> T  </i>
  </separator>
  <i type="logical" name="GGA_COMPAT"> T  </i>
  <i type="logical" name="LBERRY"> F  </i>
  <i type="int" name="ICORELEVEL">     0</i>
  <i type="logical" name="LDAU"> F  </i>
  <i type="int" name="I_CONSTRAINED_M">     0</i>
  <separator name="electronic exchange-correlation" >
   <i type="string" name="GGA">--</i>
   <i type="int" name="VOSKOWN">     0</i>
   <i type="logical" name="LHFCALC"> F  </i>
   <i type="string" name="PRECFOCK"></i>
   <i type="logical" name="LSYMGRAD"> F  </i>
   <i type="logical" name="LHFONE"> F  </i>
   <i type="logical" name="LRHFCALC"> F  </i>
   <i type="logical" name="LTHOMAS"> F  </i>
   <i type="logical" name="LMODELHF"> F  </i>
   <i name="ENCUT4O">     -1.00000000</i>
   <i type="int" name="EXXOEP">     0</i>
   <i type="int" name="FOURORBIT">     0</i>
   <i name="AEXX">      0.00000000</i>
   <i name="HFALPHA">      0.00000000</i>
   <i name="MCALPHA">      0.00000000</i>
   <i name="ALDAX">      1.00000000</i>
   <i name="AGGAX">      1.00000000</i>
   <i name="ALDAC">      1.00000000</i>
   <i name="AGGAC">      1.00000000</i>
   <i type="int" name="NKREDX">     1</i>
   <i type="int" name="NKREDY">     1</i>
   <i type="int" name="NKREDZ">     1</i>
   <i type="logical" name="SHIFTRED"> F  </i>
   <i type="logical" name="ODDONLY"> F  </i>
   <i type="logical" name="EVENONLY"> F  </i>
   <i type="int" name="LMAXFOCK">     0</i>
   <i type="int" name="NMAXFOCKAE">     0</i>
   <i type="logical" name="LFOCKAEDFT"> F  </i>
   <i name="HFSCREEN">      0.00000000</i>
   <i name="HFSCREENC">      0.00000000</i>
   <i type="int" name="NBANDSGWLOW">     0</i>
  </separator>
  <separator name="vdW DFT" >
   <i type="logical" name="LUSE_VDW"> F  </i>
   <i name="Zab_VDW">     -0.84910000</i>
   <i name="PARAM1">      0.12340000</i>
   <i name="PARAM2">      1.00000000</i>
   <i name="PARAM3">      0.00000000</i>
  </separator>
  <separator name="model GW" >
   <i type="int" name="MODEL_GW">     0</i>
   <i name="MODEL_EPS0">    327.69450000</i>
   <i name="MODEL_ALPHA">      1.00000000</i>
  </separator>
  <separator name="linear response parameters" >
   <i type="logical" name="LEPSILON"> F  </i>
   <i type="logical" name="LRPA"> F  </i>
   <i type="logical" name="LNABLA"> F  </i>
   <i type="logical" name="LVEL"> F  </i>
   <i type="int" name="KINTER">     0</i>
   <i name="CSHIFT">      0.10000000</i>
   <i name="OMEGAMAX">     -1.00000000</i>
   <i name="DEG_THRESHOLD">      0.00200000</i>
  </separator>
  <separator name="orbital magnetization" >
   <i type="logical" name="NUCIND"> F  </i>
   <v name="MAGPOS">      0.00000000      0.00000000      0.00000000</v>
   <i type="logical" name="LNICSALL"> T  </i>
   <i type="logical" name="ORBITALMAG"> F  </i>
   <i type="logical" name="LMAGBLOCH"> F  </i>
   <i type="logical" name="LCHIMAG"> F  </i>
   <i type="logical" name="LGAUGE"> T  </i>
   <i type="int" name="MAGATOM">     0</i>
   <v name="MAGDIPOL">      0.00000000      0.00000000      0.00000000</v>
   <v name="AVECCONST">      0.00000000      0.00000000      0.00000000</v>
  </separator>
  <separator name="response functions" >
   <i type="logical" name="LADDER"> F  </i>
   <i type="logical" name="LFXC"> F  </i>
   <i type="logical" name="LHARTREE"> T  </i>
   <i type="int" name="IBSE">     0</i>
   <i type="logical" name="LTCTE"> F  </i>
   <i type="logical" name="LTETE"> F  </i>
   <i type="logical" name="LTRIPLET"> F  </i>
   <i type="logical" name="LFXCEPS"> F  </i>
   <i type="logical" name="L2ORDER"> F  </i>
   <i type="logical" name="LUSEW"> F  </i>
   <i name="ENCUTGW">     -2.00000000</i>
   <i name="ENCUTGWSOFT">     -2.00000000</i>
   <i name="ENCUTLF">     -1.00000000</i>
   <i type="int" name="LMAXMP2">    -1</i>
   <i name="SCISSOR">      0.00000000</i>
   <i type="int" name="NOMEGA">     0</i>
   <i type="int" name="NOMEGAR">     0</i>
   <i type="int" name="NBANDSGW">    -1</i>
   <i type="int" name="NBANDSO">    -1</i>
   <i type="int" name="NBANDSV">    -1</i>
   <i type="int" name="NELM">     1</i>
   <i type="int" name="DIM">     3</i>
   <i type="int" name="ANTIRES">     0</i>
   <i name="OMEGAMAX">    -30.00000000</i>
   <i name="OMEGATL">   -200.00000000</i>
   <i type="int" name="OMEGAGRID">     0</i>
   <i name="CSHIFT">     -0.10000000</i>
   <i type="logical" name="SELFENERGY"> F  </i>
   <i type="logical" name="LSPECTRAL"> F  </i>
   <i type="logical" name="ODDONLYGW"> F  </i>
   <i type="logical" name="EVENONLYGW"> F  </i>
   <i type="int" name="NKREDLFX">     1</i>
   <i type="int" name="NKREDLFY">     1</i>
   <i type="int" name="NKREDLFZ">     1</i>
   <i type="int" name="MAXMEM">  1800</i>
   <i type="int" name="TELESCOPE">     0</i>
  </separator>
 </parameters>
 <atominfo>
  <atoms>       2 </atoms>
  <types>       1 </types>
  <array name="atoms" >
   <dimension dim="1">ion</dimension>
   <field type="string">element</field>
   <field type="int">atomtype</field>
   <set>
    <rc><c>Cl</c><c>   1</c></rc>
    <rc><c>Cl</c><c>   1</c></rc>
   </set>
  </array>
  <array name="atomtypes" >
   <dimension dim="1">type</dimension>
   <field type="int">atomspertype</field>
   <field type="string">element</field>
   <field>mass</field>
   <field>valence</field>
   <field type="string">pseudopotential</field>
   <set>
    <rc><c>   2</c><c>Cl</c><c>     35.45300000</c><c>      7.00000000</c><c>  PAW_PBE Cl 06Sep2000                  </c></rc>
   </set>
  </array>
 </atominfo>
 <structure name="initialpos" >
  <crystal>
   <varray name="basis" >
    <v>      10.10000000       0.00000000       0.00000000 </v>
    <v>       0.00000000      10.30000000       0.00000000 </v>
    <v>       0.00000000       0.00000000      10.50000000 </v>
   </varray>
   <i name="volume">   1092.31500000 </i>
   <varray name="rec_basis" >
    <v>       0.09900990       0.00000000       0.00000000 </v>
    <v>       0.00000000       0.09708738       0.00000000 </v>
    <v>       0.00000000       0.00000000       0.09523810 </v>
   </varray>
  </crystal>
  <varray name="positions" >
   <v>       0.00000000       0.00000000       0.00000000 </v>
   <v>       0.00000000       0.00000000       0.19047619 </v>
  </varray>
  <varray name="selective"  type="logical" >
   <v type="logical" >  F  F  T </v>
   <v type="logical" >  F  F  T </v>
  </varray>
  <nose>
   <v>      -3.00000000       0.00000000       0.00010000       0.00010000 </v>
  </nose>
 </structure>
 <calculation>
  <scstep>
   <time name="dav">    0.55    0.57</time>
   <time name="total">    1.48    1.49</time>
   <energy>
    <i name="alphaZ">      0.77340272 </i>
    <i name="ewald">    -30.60209568 </i>
    <i name="hartreedc">   -657.51956795 </i>
    <i name="XCdc">     39.75827449 </i>
    <i name="pawpsdc">    650.55111463 </i>
    <i name="pawaedc">   -650.77858365 </i>
    <i name="eentropy">     -0.15559135 </i>
    <i name="bandstr">    -56.18008318 </i>
    <i name="atom">    819.43393116 </i>
    <i name="e_fr_energy">    115.28080120 </i>
    <i name="e_wo_entrp">    115.43639255 </i>
    <i name="e_0_energy">    115.35859687 </i>
   </energy>
  </scstep>
  <scstep>
   <time name="dav">    1.10    1.10</time>
   <time name="total">    1.10    1.10</time>
   <energy>
    <i name="e_fr_energy">     25.84289700 </i>
    <i name="e_wo_entrp">     25.84289700 </i>
    <i name="e_0_energy">     25.84289700 </i>
   </energy>
  </scstep>
  <scstep>
   <time name="dav">    0.74    0.74</time>
   <time name="total">    0.74    0.74</time>
   <energy>
    <i name="e_fr_energy">     -2.39441596 </i>
    <i name="e_wo_entrp">     -2.39441596 </i>
    <i name="e_0_energy">     -2.39441596 </i>
   </energy>
  </scstep>
  <scstep>
   <time name="dav">    0.54    0.54</time>
   <time name="total">    0.54    0.54</time>
   <energy>
    <i name="e_fr_energy">     -3.87143099 </i>
    <i name="e_wo_entrp">     -3.87143099 </i>
    <i name="e_0_energy">     -3.87143099 </i>
   </energy>
  </scstep>
  <scstep>
   <time name="dav">    0.47    0.47</time>
   <time name="total">    0.58    0.58</time>
   <energy>
    <i name="e_fr_energy">     -3.87648161 </i>
    <i name="e_wo_entrp">     -3.87648161 </i>
    <i name="e_0_energy">     -3.87648161 </i>
   </energy>
  </scstep>
  <scstep>
   <time name="diag">    0.08    0.08</time>
   <time name="diis">    0.32    0.33</time>
   <time name="orth">    0.01    0.01</time>
   <time name="total">    1.30    1.31</time>
   <energy>
    <i name="e_fr_energy">     -3.65882838 </i>
    <i name="e_wo_entrp">     -3.65882838 </i>
    <i name="e_0_energy">     -3.65882838 </i>
   </energy>
  </scstep>
  <scstep>
   <time name="diag">    0.08    0.09</time>
   <time name="diis">    0.34    0.34</time>
   <time name="orth">    0.00    0.01</time>
   <time name="total">    1.30    1.31</time>
   <energy>
    <i name="e_fr_energy">     -3.57185484 </i>
    <i name="e_wo_entrp">     -3.57185484 </i>
    <i name="e_0_energy">     -3.57185484 </i>
   </energy>
  </scstep>
  <scstep>
   <time name="diag">    0.08    0.09</time>
   <time name="diis">    0.34    0.34</time>
   <time name="orth">    0.00    0.01</time>
   <time name="total">    1.49    1.49</time>
   <energy>
    <i name="e_fr_energy">     -3.56979042 </i>
    <i name="e_wo_entrp">     -3.56979042 </i>
    <i name="e_0_energy">     -3.56979042 </i>
   </energy>
  </scstep>
  <scstep>
   <time name="diag">    0.08    0.09</time>
   <time name="diis">    0.34    0.33</time>
   <time name="orth">    0.00    0.01</time>
   <time name="total">    1.34    1.34</time>
   <energy>
    <i name="e_fr_energy">     -3.57073194 </i>
    <i name="e_wo_entrp">     -3.57073194 </i>
    <i name="e_0_energy">     -3.57073194 </i>
   </energy>
  </scstep>
  <scstep>
   <time name="diag">    0.09    0.09</time>
   <time name="diis">    0.24    0.25</time>
   <time name="orth">    0.00    0.01</time>
   <time name="total">    1.26    1.26</time>
   <energy>
    <i name="e_fr_energy">     -3.57168502 </i>
    <i name="e_wo_entrp">     -3.57168502 </i>
    <i name="e_0_energy">     -3.57168502 </i>
   </energy>
  </scstep>
  <scstep>
   <time name="diag">    0.09    0.08</time>
   <time name="diis">    0.24    0.24</time>
   <time name="orth">    0.00    0.01</time>
   <time name="total">    1.24    1.24</time>
   <energy>
    <i name="e_fr_energy">     -3.57264519 </i>
    <i name="e_wo_entrp">     -3.57264519 </i>
    <i name="e_0_energy">     -3.57264519 </i>
   </energy>
  </scstep>
  <scstep>
   <time name="diag">    0.09    0.09</time>
   <time name="diis">    0.27    0.27</time>
   <time name="orth">    0.00    0.01</time>
   <time name="total">    1.32    1.32</time>
   <energy>
    <i name="e_fr_energy">     -3.57361104 </i>
    <i name="e_wo_entrp">     -3.57361104 </i>
    <i name="e_0_energy">     -3.57361104 </i>
   </energy>
  </scstep>
  <scstep>
   <time name="diag">    0.09    0.09</time>
   <time name="diis">    0.24    0.24</time>
   <time name="orth">    0.00    0.01</time>
   <time name="total">    1.29    1.29</time>
   <energy>
    <i name="e_fr_energy">     -3.57391815 </i>
    <i name="e_wo_entrp">     -3.57391815 </i>
    <i name="e_0_energy">     -3.57391815 </i>
   </energy>
  </scstep>
  <scstep>
   <time name="diag">    0.16    0.16</time>
   <time name="diis">    0.40    0.41</time>
   <time name="orth">    0.01    0.01</time>
   <time name="total">    1.86    1.87</time>
   <energy>
    <i name="e_fr_energy">     -3.57405983 </i>
    <i name="e_wo_entrp">     -3.57405983 </i>
    <i name="e_0_energy">     -3.57405983 </i>
   </energy>
  </scstep>
  <scstep>
   <time name="diag">    0.16    0.16</time>
   <time name="diis">    0.38    0.38</time>
   <time name="orth">    0.01    0.01</time>
   <time name="total">    1.76    1.76</time>
   <energy>
    <i name="alphaZ">      0.77340272 </i>
    <i name="ewald">    -30.60209568 </i>
    <i name="hartreedc">   -658.95603588 </i>
    <i name="XCdc">     40.00769829 </i>
    <i name="pawpsdc">   1059.57103621 </i>
    <i name="pawaedc">  -1059.88741272 </i>
    <i name="eentropy">     -0.00000000 </i>
    <i name="bandstr">   -173.91465621 </i>
    <i name="atom">    819.43393116 </i>
    <i name="e_fr_energy">     -3.57413211 </i>
    <i name="e_wo_entrp">     -3.57413211 </i>
    <i name="e_0_energy">     -3.57413211 </i>
   </energy>
  </scstep>
  <structure>
   <crystal>
    <varray name="basis" >
     <v>      10.10000000       0.00000000       0.00000000 </v>
     <v>       0.00000000      10.30000000       0.00000000 </v>
     <v>       0.00000000       0.00000000      10.50000000 </v>
    </varray>
    <i name="volume">   1092.31500000 </i>
    <varray name="rec_basis" >
     <v>       0.09900990       0.00000000       0.00000000 </v>
     <v>       0.00000000       0.09708738       0.00000000 </v>
     <v>       0.00000000       0.00000000       0.09523810 </v>
    </varray>
   </crystal>
   <varray name="positions" >
    <v>       0.00000000       0.00000000       0.00000000 </v>
    <v>       0.00000000       0.00000000       0.19047619 </v>
   </varray>
  </structure>
  <varray name="forces" >
   <v>       0.00000000       0.00000000       0.12839705 </v>
   <v>       0.00000000       0.00000000      -0.12839705 </v>
  </varray>
  <varray name="stress" >
   <v>      -0.03495314       0.00000000       0.00000000 </v>
   <v>       0.00000000      -0.03142054       0.00000000 </v>
   <v>       0.00000000       0.00000000      -0.43317131 </v>
  </varray>
  <energy>
   <i name="e_fr_energy">     -3.57413211 </i>
   <i name="e_wo_entrp">     -3.57413211 </i>
   <i name="e_0_energy">     -0.00000000 </i>
  </energy>
  <time name="totalsc">   21.43   21.48</time>
 </calculation>
 <calculation>
  <scstep>
   <time name="dav">    0.45    0.45</time>
   <time name="total">    1.38    1.38</time>
   <energy>
    <i name="alphaZ">      0.77340272 </i>
    <i name="ewald">    -28.47147626 </i>
    <i name="hartreedc">   -660.80887534 </i>
    <i name="XCdc">     40.04231722 </i>
    <i name="pawpsdc">   1059.59626617 </i>
    <i name="pawaedc">  -1059.91252281 </i>
    <i name="eentropy">     -0.00000000 </i>
    <i name="bandstr">   -174.22691201 </i>
    <i name="atom">    819.43393116 </i>
    <i name="e_fr_energy">     -3.57386915 </i>
    <i name="e_wo_entrp">     -3.57386915 </i>
    <i name="e_0_energy">     -3.57386915 </i>
   </energy>
  </scstep>
  <scstep>
   <time name="diag">    0.08    0.08</time>
   <time name="diis">    0.32    0.32</time>
   <time name="orth">    0.01    0.01</time>
   <time name="total">    1.37    1.37</time>
   <energy>
    <i name="e_fr_energy">     -3.57440624 </i>
    <i name="e_wo_entrp">     -3.57440624 </i>
    <i name="e_0_energy">     -3.57440624 </i>
   </energy>
  </scstep>
  <scstep>
   <time name="diag">    0.08    0.09</time>
   <time name="diis">    0.24    0.24</time>
   <time name="orth">    0.01    0.01</time>
   <time name="total">    1.19    1.19</time>
   <energy>
    <i name="alphaZ">      0.77340272 </i>
    <i name="ewald">    -28.47147626 </i>
    <i name="hartreedc">   -660.91860664 </i>
    <i name="XCdc">     40.04592020 </i>
    <i name="pawpsdc">   1073.53814846 </i>
    <i name="pawaedc">  -1073.86065782 </i>
    <i name="eentropy">     -0.00000000 </i>
    <i name="bandstr">   -174.11504863 </i>
    <i name="atom">    819.43393116 </i>
    <i name="e_fr_energy">     -3.57438681 </i>
    <i name="e_wo_entrp">     -3.57438681 </i>
    <i name="e_0_energy">     -3.57438681 </i>
   </energy>
  </scstep>
  <structure>
   <crystal>
    <varray name="basis" >
     <v>      10.10000000       0.00000000       0.00000000 </v>
     <v>       0.00000000      10.30000000       0.00000000 </v>
     <v>       0.00000000       0.00000000      10.50000000 </v>
    </varray>
    <i name="volume">   1092.31500000 </i>
    <varray name="rec_basis" >
     <v>       0.09900990       0.00000000       0.00000000 </v>
     <v>       0.00000000       0.09708738       0.00000000 </v>
     <v>       0.00000000       0.00000000       0.09523810 </v>
    </varray>
   </crystal>
   <varray name="positions" >
    <v>       0.00000000       0.00000000       0.00058993 </v>
    <v>       0.00000000       0.00000000       0.18988627 </v>
   </varray>
  </structure>
  <varray name="forces" >
   <v>       0.00000000       0.00000000      -0.09650767 </v>
   <v>       0.00000000       0.00000000       0.09650767 </v>
  </varray>
  <varray name="stress" >
   <v>       0.01537854       0.00000000       0.00000000 </v>
   <v>       0.00000000       0.01897165       0.00000000 </v>
   <v>       0.00000000       0.00000000       0.25780871 </v>
  </varray>
  <energy>
   <i name="e_fr_energy">     -3.57438681 </i>
   <i name="e_wo_entrp">     -3.57438681 </i>
   <i name="e_0_energy">     -0.00000000 </i>
  </energy>
  <time name="totalsc">    6.65    6.66</time>
 </calculation>
 <calculation>
  <scstep>
   <time name="dav">    0.45    0.45</time>
   <time name="total">    1.44    1.44</time>
   <energy>
    <i name="alphaZ">      0.77340272 </i>
    <i name="ewald">    -29.38914675 </i>
    <i name="hartreedc">   -660.15959699 </i>
    <i name="XCdc">     40.03204246 </i>
    <i name="pawpsdc">   1077.79494334 </i>
    <i name="pawaedc">  -1078.12035141 </i>
    <i name="eentropy">     -0.00000000 </i>
    <i name="bandstr">   -173.93977960 </i>
    <i name="atom">    819.43393116 </i>
    <i name="e_fr_energy">     -3.57455507 </i>
    <i name="e_wo_entrp">     -3.57455507 </i>
    <i name="e_0_energy">     -3.57455507 </i>
   </energy>
  </scstep>
  <scstep>
   <time name="diag">    0.09    0.09</time>
   <time name="diis">    0.31    0.31</time>
   <time name="orth">    0.00    0.01</time>
   <time name="total">    1.41    1.41</time>
   <energy>
    <i name="e_fr_energy">     -3.57464600 </i>
    <i name="e_wo_entrp">     -3.57464600 </i>
    <i name="e_0_energy">     -3.57464600 </i>
   </energy>
  </scstep>
  <scstep>
   <time name="diag">    0.09    0.09</time>
   <time name="diis">    0.23    0.23</time>
   <time name="orth">    0.00    0.01</time>
   <time name="total">    1.22    1.22</time>
   <energy>
    <i name="alphaZ">      0.77340272 </i>
    <i name="ewald">    -29.38914675 </i>
    <i name="hartreedc">   -660.08024413 </i>
    <i name="XCdc">     40.02943282 </i>
    <i name="pawpsdc">   1071.65354034 </i>
    <i name="pawaedc">  -1071.97552172 </i>
    <i name="eentropy">     -0.00000000 </i>
    <i name="bandstr">   -174.02003612 </i>
    <i name="atom">    819.43393116 </i>
    <i name="e_fr_energy">     -3.57464167 </i>
    <i name="e_wo_entrp">     -3.57464167 </i>
    <i name="e_0_energy">     -3.57464167 </i>
   </energy>
  </scstep>
  <structure>
   <crystal>
    <varray name="basis" >
     <v>      10.10000000       0.00000000       0.00000000 </v>
     <v>       0.00000000      10.30000000       0.00000000 </v>
     <v>       0.00000000       0.00000000      10.50000000 </v>
    </varray>
    <i name="volume">   1092.31500000 </i>
    <varray name="rec_basis" >
     <v>       0.09900990       0.00000000       0.00000000 </v>
     <v>       0.00000000       0.09708738       0.00000000 </v>
     <v>       0.00000000       0.00000000       0.09523810 </v>
    </varray>
   </crystal>
   <varray name="positions" >
    <v>       0.00000000       0.00000000       0.00033679 </v>
    <v>       0.00000000       0.00000000       0.19013940 </v>
   </varray>
  </structure>
  <varray name="forces" >
   <v>       0.00000000       0.00000000      -0.00241153 </v>
   <v>       0.00000000       0.00000000       0.00241153 </v>
  </varray>
  <varray name="stress" >
   <v>      -0.05688963       0.00000000       0.00000000 </v>
   <v>       0.00000000      -0.05285682       0.00000000 </v>
   <v>       0.00000000       0.00000000      -0.05864586 </v>
  </varray>
  <energy>
   <i name="e_fr_energy">     -3.57464167 </i>
   <i name="e_wo_entrp">     -3.57464167 </i>
   <i name="e_0_energy">     -0.00000000 </i>
  </energy>
  <time name="totalsc">    6.56    6.56</time>
  <eigenvalues>
   <array>
    <dimension dim="1">band</dimension>
    <dimension dim="2">kpoint</dimension>
    <dimension dim="3">spin</dimension>
    <field>eigene</field>
    <field>occ</field>
    <set>
     <set comment="spin 1">
      <set comment="kpoint 1">
       <r>  -23.2220    1.0000 </r>
       <r>  -18.9595    1.0000 </r>
       <r>  -11.6577    1.0000 </r>
       <r>   -9.6258    1.0000 </r>
       <r>   -9.6257    1.0000 </r>
       <r>   -6.9597    1.0000 </r>
       <r>   -6.9597    1.0000 </r>
       <r>   -3.9337    0.0000 </r>
       <r>   -0.3147    0.0000 </r>
       <r>    0.9847    0.0000 </r>
       <r>    1.1382    0.0000 </r>
      </set>
     </set>
    </set>
   </array>
  </eigenvalues>
  <separator name="orbital magnetization" >
   <v name="MAGDIPOLOUT">      0.00000000      0.00000000      0.00000000</v>
  </separator>
 </calculation>
 <structure name="finalpos" >
  <crystal>
   <varray name="basis" >
    <v>      10.10000000       0.00000000       0.00000000 </v>
    <v>       0.00000000      10.30000000       0.00000000 </v>
    <v>       0.00000000       0.00000000      10.50000000 </v>
   </varray>
   <i name="volume">   1092.31500000 </i>
   <varray name="rec_basis" >
    <v>       0.09900990       0.00000000       0.00000000 </v>
    <v>       0.00000000       0.09708738       0.00000000 </v>
    <v>       0.00000000       0.00000000       0.09523810 </v>
   </varray>
  </crystal>
  <varray name="positions" >
   <v>       0.00000000       0.00000000       0.00033679 </v>
   <v>       0.00000000       0.00000000       0.19013940 </v>
  </varray>
  <varray name="selective"  type="logical" >
   <v type="logical" >  F  F  T </v>
   <v type="logical" >  F  F  T </v>
  </varray>
  <nose>
   <v>      -3.00000000       0.00000000       0.00010000       0.00010000 </v>
  </nose>
 </structure>
</modeling>
