Hello World                             
           1
    10.100000    0.000000    0.000000
     0.000000   10.300000    0.000000
     0.000000    0.000000   10.500000
   Cl
   2
Direct configuration=     1
   0.00000000  0.00000000  0.00000000
   0.00000000  0.00000000  0.19047619
Direct configuration=     2
   0.00000000  0.00000000  0.00058993
   0.00000000  0.00000000  0.18988627
Direct configuration=     3
   0.00000000  0.00000000  0.00033679
   0.00000000  0.00000000  0.19013940
