  14  14   0   0
  0.3408171E+02  0.5640000E-09  0.5640000E-09  0.1500000E-08  0.5000000E-15
  1.000000000000000E-004
  CAR 
 Crystal                                 
     16.03926529    -12.82201898  301     -0.57737089      1.00000000
    -12.822  0.6930E-01  0.6930E-01  0.6667E-02  0.6667E-02
    -12.726  0.0000E+00  0.0000E+00  0.6667E-02  0.6667E-02
    -12.630  0.0000E+00  0.0000E+00  0.6667E-02  0.6667E-02
    -12.533  0.0000E+00  0.0000E+00  0.6667E-02  0.6667E-02
    -12.437  0.0000E+00  0.0000E+00  0.6667E-02  0.6667E-02
    -12.341  0.0000E+00  0.0000E+00  0.6667E-02  0.6667E-02
    -12.245  0.0000E+00  0.0000E+00  0.6667E-02  0.6667E-02
    -12.149  0.0000E+00  0.0000E+00  0.6667E-02  0.6667E-02
    -12.052  0.0000E+00  0.0000E+00  0.6667E-02  0.6667E-02
    -11.956  0.0000E+00  0.0000E+00  0.6667E-02  0.6667E-02
    -11.860  0.0000E+00  0.0000E+00  0.6667E-02  0.6667E-02
    -11.764  0.0000E+00  0.0000E+00  0.6667E-02  0.6667E-02
    -11.668  0.0000E+00  0.0000E+00  0.6667E-02  0.6667E-02
    -11.571  0.0000E+00  0.0000E+00  0.6667E-02  0.6667E-02
    -11.475  0.0000E+00  0.0000E+00  0.6667E-02  0.6667E-02
    -11.379  0.0000E+00  0.0000E+00  0.6667E-02  0.6667E-02
    -11.283  0.0000E+00  0.0000E+00  0.6667E-02  0.6667E-02
    -11.187  0.0000E+00  0.0000E+00  0.6667E-02  0.6667E-02
    -11.090  0.0000E+00  0.0000E+00  0.6667E-02  0.6667E-02
    -10.994  0.0000E+00  0.0000E+00  0.6667E-02  0.6667E-02
    -10.898  0.0000E+00  0.0000E+00  0.6667E-02  0.6667E-02
    -10.802  0.0000E+00  0.0000E+00  0.6667E-02  0.6667E-02
    -10.706  0.0000E+00  0.0000E+00  0.6667E-02  0.6667E-02
    -10.609  0.0000E+00  0.0000E+00  0.6667E-02  0.6667E-02
    -10.513  0.0000E+00  0.0000E+00  0.6667E-02  0.6667E-02
    -10.417  0.0000E+00  0.0000E+00  0.6667E-02  0.6667E-02
    -10.321  0.0000E+00  0.0000E+00  0.6667E-02  0.6667E-02
    -10.225  0.0000E+00  0.0000E+00  0.6667E-02  0.6667E-02
    -10.128  0.0000E+00  0.0000E+00  0.6667E-02  0.6667E-02
    -10.032  0.0000E+00  0.0000E+00  0.6667E-02  0.6667E-02
     -9.936  0.0000E+00  0.0000E+00  0.6667E-02  0.6667E-02
     -9.840  0.0000E+00  0.0000E+00  0.6667E-02  0.6667E-02
     -9.743  0.0000E+00  0.0000E+00  0.6667E-02  0.6667E-02
     -9.647  0.0000E+00  0.0000E+00  0.6667E-02  0.6667E-02
     -9.551  0.0000E+00  0.0000E+00  0.6667E-02  0.6667E-02
     -9.455  0.0000E+00  0.0000E+00  0.6667E-02  0.6667E-02
     -9.359  0.0000E+00  0.0000E+00  0.6667E-02  0.6667E-02
     -9.262  0.0000E+00  0.0000E+00  0.6667E-02  0.6667E-02
     -9.166  0.0000E+00  0.0000E+00  0.6667E-02  0.6667E-02
     -9.070  0.0000E+00  0.0000E+00  0.6667E-02  0.6667E-02
     -8.974  0.0000E+00  0.0000E+00  0.6667E-02  0.6667E-02
     -8.878  0.1724E-32  0.0000E+00  0.6667E-02  0.6667E-02
     -8.781  0.8322E-26  0.0000E+00  0.6667E-02  0.6667E-02
     -8.685  0.5983E-20  0.0000E+00  0.6667E-02  0.6667E-02
     -8.589  0.6297E-15  0.2469E-30  0.6667E-02  0.6667E-02
     -8.493  0.9355E-11  0.6624E-24  0.6667E-02  0.6667E-02
     -8.397  0.1843E-07  0.2633E-18  0.6667E-02  0.6667E-02
     -8.300  0.4076E-05  0.1519E-13  0.6667E-02  0.6667E-02
     -8.204  0.3648E-04  0.1219E-09  0.6671E-02  0.6667E-02
     -8.108 -0.4871E-03  0.1255E-06  0.6624E-02  0.6667E-02
     -8.012  0.4673E-02  0.1291E-04  0.7073E-02  0.6668E-02
     -7.916  0.4883E-02 -0.3594E-04  0.7543E-02  0.6664E-02
     -7.819 -0.4861E-03 -0.9938E-04  0.7496E-02  0.6655E-02
     -7.723  0.3461E-04  0.6916E-02  0.7500E-02  0.7320E-02
     -7.627  0.4497E-05  0.2156E-02  0.7500E-02  0.7528E-02
     -7.531  0.2151E-07 -0.3237E-03  0.7500E-02  0.7497E-02
     -7.435  0.1750E-10  0.3483E-04  0.7500E-02  0.7500E-02
     -7.338  0.1468E-07  0.1112E-05  0.7500E-02  0.7500E-02
     -7.242  0.4330E-05  0.2610E-08  0.7500E-02  0.7500E-02
     -7.146  0.9034E-04  0.1965E-11  0.7509E-02  0.7500E-02
     -7.050 -0.7855E-03  0.4239E-08  0.7434E-02  0.7500E-02
     -6.954  0.5575E-02  0.1832E-05  0.7970E-02  0.7500E-02
     -6.857  0.2391E-01  0.6791E-04  0.1027E-01  0.7507E-02
     -6.761  0.6607E-02 -0.4609E-03  0.1091E-01  0.7462E-02
     -6.665 -0.8538E-03  0.2511E-02  0.1082E-01  0.7704E-02
     -6.569  0.9190E-04  0.2208E-01  0.1083E-01  0.9828E-02
     -6.473  0.5613E-05  0.1126E-01  0.1083E-01  0.1091E-01
     -6.376  0.3481E-05 -0.8735E-03  0.1083E-01  0.1083E-01
     -6.280  0.1234E-03  0.1367E-03  0.1085E-01  0.1084E-01
     -6.184 -0.1030E-02 -0.8220E-03  0.1075E-01  0.1076E-01
     -6.088  0.6548E-02  0.6399E-02  0.1138E-01  0.1138E-01
     -5.992  0.2870E-01  0.1236E-01  0.1414E-01  0.1257E-01
     -5.895  0.1395E-01 -0.6536E-03  0.1548E-01  0.1250E-01
     -5.799  0.1235E-01 -0.3776E-03  0.1667E-01  0.1247E-01
     -5.703 -0.1424E-03  0.2250E-02  0.1665E-01  0.1268E-01
     -5.607  0.6182E-02  0.1573E-01  0.1725E-01  0.1420E-01
     -5.510  0.1595E-01  0.1549E-01  0.1878E-01  0.1569E-01
     -5.414  0.2124E-01  0.8186E-02  0.2083E-01  0.1647E-01
     -5.318  0.1005E-01  0.3267E-02  0.2179E-01  0.1679E-01
     -5.222  0.2115E-01  0.7098E-02  0.2383E-01  0.1747E-01
     -5.126  0.2105E-01  0.1268E-03  0.2585E-01  0.1748E-01
     -5.029  0.3354E-01  0.1412E-02  0.2908E-01  0.1762E-01
     -4.933  0.4961E-01  0.1477E-01  0.3385E-01  0.1904E-01
     -4.837  0.5404E-01  0.1254E-02  0.3905E-01  0.1916E-01
     -4.741  0.2113E-01  0.2547E-02  0.4109E-01  0.1941E-01
     -4.645  0.2777E-01  0.1739E-01  0.4376E-01  0.2108E-01
     -4.548  0.3977E-01  0.1744E-01  0.4758E-01  0.2276E-01
     -4.452  0.5782E-01  0.1520E-01  0.5315E-01  0.2422E-01
     -4.356  0.7384E-01  0.9664E-02  0.6025E-01  0.2515E-01
     -4.260  0.6181E-01  0.1353E-01  0.6620E-01  0.2645E-01
     -4.164  0.6493E-01  0.3169E-02  0.7244E-01  0.2675E-01
     -4.067  0.7084E-01  0.3095E-01  0.7926E-01  0.2973E-01
     -3.971  0.4478E-01  0.2967E-01  0.8356E-01  0.3259E-01
     -3.875  0.4029E-01  0.8457E-02  0.8744E-01  0.3340E-01
     -3.779  0.5238E-01 -0.5035E-03  0.9248E-01  0.3335E-01
     -3.683  0.2927E-01  0.2052E-01  0.9530E-01  0.3533E-01
     -3.586  0.3178E-01  0.2533E-01  0.9835E-01  0.3776E-01
     -3.490  0.9547E-01  0.2769E-01  0.1075E+00  0.4043E-01
     -3.394  0.6866E-01  0.3103E-01  0.1141E+00  0.4341E-01
     -3.298  0.5117E-01  0.2553E-01  0.1191E+00  0.4587E-01
     -3.202  0.4277E-01  0.2727E-01  0.1232E+00  0.4849E-01
     -3.105  0.7155E-01  0.1031E-01  0.1301E+00  0.4948E-01
     -3.009  0.4573E-01  0.2978E-01  0.1345E+00  0.5235E-01
     -2.913  0.6289E-01  0.2968E-01  0.1405E+00  0.5520E-01
     -2.817  0.3524E-01  0.2401E-01  0.1439E+00  0.5751E-01
     -2.721  0.4559E-01  0.2489E-01  0.1483E+00  0.5991E-01
     -2.624  0.6808E-01  0.1846E-01  0.1548E+00  0.6168E-01
     -2.528  0.6969E-01  0.2742E-01  0.1615E+00  0.6432E-01
     -2.432  0.3554E-01  0.3398E-01  0.1650E+00  0.6759E-01
     -2.336  0.4720E-01  0.4255E-01  0.1695E+00  0.7168E-01
     -2.240  0.4120E-01  0.1911E-01  0.1735E+00  0.7352E-01
     -2.143  0.7600E-01  0.3230E-01  0.1808E+00  0.7663E-01
     -2.047  0.6979E-01  0.1782E-01  0.1875E+00  0.7834E-01
     -1.951  0.6921E-01  0.6912E-01  0.1942E+00  0.8499E-01
     -1.855  0.7655E-01  0.7346E-01  0.2015E+00  0.9206E-01
     -1.759  0.3892E-01  0.5202E-02  0.2053E+00  0.9256E-01
     -1.662  0.3826E-01  0.4783E-02  0.2089E+00  0.9302E-01
     -1.566  0.4172E-01  0.4310E-02  0.2130E+00  0.9344E-01
     -1.470  0.4222E-01  0.6365E-01  0.2170E+00  0.9956E-01
     -1.374  0.4677E-01  0.8989E-01  0.2215E+00  0.1082E+00
     -1.278  0.4903E-01  0.1744E-01  0.2262E+00  0.1099E+00
     -1.181  0.3813E-01  0.2505E-01  0.2299E+00  0.1123E+00
     -1.085  0.3678E-01  0.3881E-01  0.2334E+00  0.1160E+00
     -0.989  0.2664E-01  0.1537E-01  0.2360E+00  0.1175E+00
     -0.893  0.7870E-02  0.2198E-01  0.2368E+00  0.1196E+00
     -0.796 -0.1816E-02  0.3430E-01  0.2366E+00  0.1229E+00
     -0.700  0.6723E-02  0.1709E-01  0.2372E+00  0.1246E+00
     -0.604  0.1139E-01  0.2991E-01  0.2383E+00  0.1274E+00
     -0.508  0.1087E-01  0.1918E-01  0.2394E+00  0.1293E+00
     -0.412  0.7013E-02  0.5842E-01  0.2400E+00  0.1349E+00
     -0.315  0.1620E-02  0.7048E-01  0.2402E+00  0.1417E+00
     -0.219  0.7735E-02  0.4230E-01  0.2409E+00  0.1458E+00
     -0.123  0.7117E-02  0.3029E-01  0.2416E+00  0.1487E+00
     -0.027  0.4568E-03  0.5321E-01  0.2417E+00  0.1538E+00
      0.069 -0.1020E-03  0.4585E-01  0.2417E+00  0.1582E+00
      0.166  0.6341E-04  0.3996E-01  0.2417E+00  0.1620E+00
      0.262 -0.4900E-03  0.2014E-01  0.2416E+00  0.1640E+00
      0.358  0.4708E-02  0.6485E-01  0.2421E+00  0.1702E+00
      0.454  0.1104E-01  0.7509E-01  0.2431E+00  0.1774E+00
      0.550  0.2324E-02  0.7260E-01  0.2434E+00  0.1844E+00
      0.647 -0.3506E-03  0.6609E-01  0.2433E+00  0.1908E+00
      0.743  0.4213E-04  0.5322E-01  0.2433E+00  0.1959E+00
      0.839  0.1636E-05  0.6090E-01  0.2433E+00  0.2018E+00
      0.935  0.4538E-08  0.4428E-01  0.2433E+00  0.2060E+00
      1.031  0.1499E-11  0.3875E-01  0.2433E+00  0.2098E+00
      1.128  0.6636E-16  0.4402E-01  0.2433E+00  0.2140E+00
      1.224  0.0000E+00  0.8920E-01  0.2433E+00  0.2226E+00
      1.320  0.0000E+00  0.6242E-01  0.2433E+00  0.2286E+00
      1.416  0.0000E+00  0.4520E-01  0.2433E+00  0.2329E+00
      1.512  0.0000E+00  0.3182E-01  0.2433E+00  0.2360E+00
      1.609  0.0000E+00  0.4361E-01  0.2433E+00  0.2402E+00
      1.705  0.0000E+00  0.7315E-02  0.2433E+00  0.2409E+00
      1.801  0.0000E+00  0.1309E-02  0.2433E+00  0.2410E+00
      1.897  0.0000E+00  0.6991E-02  0.2433E+00  0.2417E+00
      1.993  0.0000E+00 -0.7686E-03  0.2433E+00  0.2416E+00
      2.090  0.0000E+00  0.6132E-02  0.2433E+00  0.2422E+00
      2.186  0.0000E+00  0.1152E-01  0.2433E+00  0.2433E+00
      2.282  0.0000E+00  0.3165E-03  0.2433E+00  0.2433E+00
      2.378  0.0000E+00 -0.1210E-03  0.2433E+00  0.2433E+00
      2.474  0.0000E+00  0.2658E-04  0.2433E+00  0.2433E+00
      2.571  0.0000E+00  0.4162E-06  0.2433E+00  0.2433E+00
      2.667  0.0000E+00  0.6199E-09  0.2433E+00  0.2433E+00
      2.763  0.0000E+00  0.1166E-12  0.2433E+00  0.2433E+00
      2.859  0.0000E+00  0.2885E-17  0.2433E+00  0.2433E+00
      2.955  0.0000E+00  0.0000E+00  0.2433E+00  0.2433E+00
      3.052  0.0000E+00  0.0000E+00  0.2433E+00  0.2433E+00
      3.148  0.0000E+00  0.0000E+00  0.2433E+00  0.2433E+00
      3.244  0.0000E+00  0.0000E+00  0.2433E+00  0.2433E+00
      3.340  0.0000E+00  0.0000E+00  0.2433E+00  0.2433E+00
      3.437  0.0000E+00  0.0000E+00  0.2433E+00  0.2433E+00
      3.533  0.0000E+00  0.0000E+00  0.2433E+00  0.2433E+00
      3.629  0.0000E+00  0.0000E+00  0.2433E+00  0.2433E+00
      3.725  0.0000E+00  0.0000E+00  0.2433E+00  0.2433E+00
      3.821  0.0000E+00  0.0000E+00  0.2433E+00  0.2433E+00
      3.918  0.0000E+00  0.0000E+00  0.2433E+00  0.2433E+00
      4.014  0.0000E+00  0.0000E+00  0.2433E+00  0.2433E+00
      4.110  0.0000E+00  0.0000E+00  0.2433E+00  0.2433E+00
      4.206  0.0000E+00  0.0000E+00  0.2433E+00  0.2433E+00
      4.302  0.0000E+00  0.0000E+00  0.2433E+00  0.2433E+00
      4.399  0.0000E+00  0.0000E+00  0.2433E+00  0.2433E+00
      4.495  0.0000E+00  0.0000E+00  0.2433E+00  0.2433E+00
      4.591  0.0000E+00  0.0000E+00  0.2433E+00  0.2433E+00
      4.687  0.0000E+00  0.0000E+00  0.2433E+00  0.2433E+00
      4.783  0.0000E+00  0.0000E+00  0.2433E+00  0.2433E+00
      4.880  0.0000E+00  0.0000E+00  0.2433E+00  0.2433E+00
      4.976  0.0000E+00  0.0000E+00  0.2433E+00  0.2433E+00
      5.072  0.0000E+00  0.0000E+00  0.2433E+00  0.2433E+00
      5.168  0.0000E+00  0.0000E+00  0.2433E+00  0.2433E+00
      5.264  0.0000E+00  0.0000E+00  0.2433E+00  0.2433E+00
      5.361  0.0000E+00  0.0000E+00  0.2433E+00  0.2433E+00
      5.457  0.0000E+00  0.0000E+00  0.2433E+00  0.2433E+00
      5.553  0.0000E+00  0.0000E+00  0.2433E+00  0.2433E+00
      5.649  0.0000E+00  0.0000E+00  0.2433E+00  0.2433E+00
      5.745  0.0000E+00  0.0000E+00  0.2433E+00  0.2433E+00
      5.842  0.0000E+00  0.0000E+00  0.2433E+00  0.2433E+00
      5.938  0.0000E+00  0.0000E+00  0.2433E+00  0.2433E+00
      6.034  0.0000E+00  0.0000E+00  0.2433E+00  0.2433E+00
      6.130  0.0000E+00  0.0000E+00  0.2433E+00  0.2433E+00
      6.226  0.0000E+00  0.0000E+00  0.2433E+00  0.2433E+00
      6.323  0.0000E+00  0.0000E+00  0.2433E+00  0.2433E+00
      6.419  0.0000E+00  0.0000E+00  0.2433E+00  0.2433E+00
      6.515  0.0000E+00  0.0000E+00  0.2433E+00  0.2433E+00
      6.611  0.0000E+00  0.0000E+00  0.2433E+00  0.2433E+00
      6.707  0.0000E+00  0.0000E+00  0.2433E+00  0.2433E+00
      6.804  0.0000E+00  0.0000E+00  0.2433E+00  0.2433E+00
      6.900  0.0000E+00  0.0000E+00  0.2433E+00  0.2433E+00
      6.996  0.0000E+00  0.0000E+00  0.2433E+00  0.2433E+00
      7.092  0.0000E+00  0.0000E+00  0.2433E+00  0.2433E+00
      7.188  0.0000E+00  0.0000E+00  0.2433E+00  0.2433E+00
      7.285  0.0000E+00  0.0000E+00  0.2433E+00  0.2433E+00
      7.381  0.0000E+00  0.0000E+00  0.2433E+00  0.2433E+00
      7.477  0.0000E+00  0.0000E+00  0.2433E+00  0.2433E+00
      7.573  0.0000E+00  0.0000E+00  0.2433E+00  0.2433E+00
      7.669  0.0000E+00  0.0000E+00  0.2433E+00  0.2433E+00
      7.766  0.0000E+00  0.0000E+00  0.2433E+00  0.2433E+00
      7.862  0.0000E+00  0.0000E+00  0.2433E+00  0.2433E+00
      7.958  0.0000E+00  0.0000E+00  0.2433E+00  0.2433E+00
      8.054  0.0000E+00  0.0000E+00  0.2433E+00  0.2433E+00
      8.151  0.0000E+00  0.0000E+00  0.2433E+00  0.2433E+00
      8.247  0.0000E+00  0.0000E+00  0.2433E+00  0.2433E+00
      8.343  0.0000E+00  0.0000E+00  0.2433E+00  0.2433E+00
      8.439  0.0000E+00  0.0000E+00  0.2433E+00  0.2433E+00
      8.535  0.0000E+00  0.0000E+00  0.2433E+00  0.2433E+00
      8.632  0.0000E+00  0.0000E+00  0.2433E+00  0.2433E+00
      8.728  0.0000E+00  0.0000E+00  0.2433E+00  0.2433E+00
      8.824  0.0000E+00  0.0000E+00  0.2433E+00  0.2433E+00
      8.920  0.0000E+00  0.0000E+00  0.2433E+00  0.2433E+00
      9.016  0.0000E+00  0.0000E+00  0.2433E+00  0.2433E+00
      9.113  0.0000E+00  0.0000E+00  0.2433E+00  0.2433E+00
      9.209  0.0000E+00  0.0000E+00  0.2433E+00  0.2433E+00
      9.305  0.0000E+00  0.0000E+00  0.2433E+00  0.2433E+00
      9.401  0.0000E+00  0.0000E+00  0.2433E+00  0.2433E+00
      9.497  0.0000E+00  0.0000E+00  0.2433E+00  0.2433E+00
      9.594  0.0000E+00  0.0000E+00  0.2433E+00  0.2433E+00
      9.690  0.0000E+00  0.0000E+00  0.2433E+00  0.2433E+00
      9.786  0.0000E+00  0.0000E+00  0.2433E+00  0.2433E+00
      9.882  0.0000E+00  0.0000E+00  0.2433E+00  0.2433E+00
      9.978  0.0000E+00  0.0000E+00  0.2433E+00  0.2433E+00
     10.075  0.0000E+00  0.0000E+00  0.2433E+00  0.2433E+00
     10.171  0.0000E+00  0.0000E+00  0.2433E+00  0.2433E+00
     10.267  0.0000E+00  0.0000E+00  0.2433E+00  0.2433E+00
     10.363  0.0000E+00  0.0000E+00  0.2433E+00  0.2433E+00
     10.459  0.0000E+00  0.0000E+00  0.2433E+00  0.2433E+00
     10.556  0.0000E+00  0.0000E+00  0.2433E+00  0.2433E+00
     10.652  0.0000E+00  0.0000E+00  0.2433E+00  0.2433E+00
     10.748  0.0000E+00  0.0000E+00  0.2433E+00  0.2433E+00
     10.844  0.0000E+00  0.0000E+00  0.2433E+00  0.2433E+00
     10.940  0.0000E+00  0.0000E+00  0.2433E+00  0.2433E+00
     11.037  0.0000E+00  0.0000E+00  0.2433E+00  0.2433E+00
     11.133  0.0000E+00  0.0000E+00  0.2433E+00  0.2433E+00
     11.229  0.0000E+00  0.0000E+00  0.2433E+00  0.2433E+00
     11.325  0.0000E+00  0.0000E+00  0.2433E+00  0.2433E+00
     11.421  0.0000E+00  0.0000E+00  0.2433E+00  0.2433E+00
     11.518  0.0000E+00  0.0000E+00  0.2433E+00  0.2433E+00
     11.614  0.0000E+00  0.0000E+00  0.2433E+00  0.2433E+00
     11.710  0.0000E+00  0.0000E+00  0.2433E+00  0.2433E+00
     11.806  0.0000E+00  0.0000E+00  0.2433E+00  0.2433E+00
     11.902  0.0000E+00  0.0000E+00  0.2433E+00  0.2433E+00
     11.999  0.0000E+00  0.0000E+00  0.2433E+00  0.2433E+00
     12.095  0.0000E+00  0.0000E+00  0.2433E+00  0.2433E+00
     12.191  0.0000E+00  0.0000E+00  0.2433E+00  0.2433E+00
     12.287  0.0000E+00  0.0000E+00  0.2433E+00  0.2433E+00
     12.384  0.0000E+00  0.0000E+00  0.2433E+00  0.2433E+00
     12.480  0.0000E+00  0.0000E+00  0.2433E+00  0.2433E+00
     12.576  0.0000E+00  0.0000E+00  0.2433E+00  0.2433E+00
     12.672  0.0000E+00  0.0000E+00  0.2433E+00  0.2433E+00
     12.768  0.0000E+00  0.0000E+00  0.2433E+00  0.2433E+00
     12.865  0.0000E+00  0.0000E+00  0.2433E+00  0.2433E+00
     12.961  0.0000E+00  0.0000E+00  0.2433E+00  0.2433E+00
     13.057  0.0000E+00  0.0000E+00  0.2433E+00  0.2433E+00
     13.153  0.0000E+00  0.0000E+00  0.2433E+00  0.2433E+00
     13.249  0.0000E+00  0.0000E+00  0.2433E+00  0.2433E+00
     13.346  0.0000E+00  0.0000E+00  0.2433E+00  0.2433E+00
     13.442  0.0000E+00  0.0000E+00  0.2433E+00  0.2433E+00
     13.538  0.0000E+00  0.0000E+00  0.2433E+00  0.2433E+00
     13.634  0.0000E+00  0.0000E+00  0.2433E+00  0.2433E+00
     13.730  0.0000E+00  0.0000E+00  0.2433E+00  0.2433E+00
     13.827  0.0000E+00  0.0000E+00  0.2433E+00  0.2433E+00
     13.923  0.0000E+00  0.0000E+00  0.2433E+00  0.2433E+00
     14.019  0.0000E+00  0.0000E+00  0.2433E+00  0.2433E+00
     14.115  0.0000E+00  0.0000E+00  0.2433E+00  0.2433E+00
     14.211  0.0000E+00  0.0000E+00  0.2433E+00  0.2433E+00
     14.308  0.0000E+00  0.0000E+00  0.2433E+00  0.2433E+00
     14.404  0.0000E+00  0.0000E+00  0.2433E+00  0.2433E+00
     14.500  0.0000E+00  0.0000E+00  0.2433E+00  0.2433E+00
     14.596  0.0000E+00  0.0000E+00  0.2433E+00  0.2433E+00
     14.692  0.0000E+00  0.0000E+00  0.2433E+00  0.2433E+00
     14.789  0.0000E+00  0.0000E+00  0.2433E+00  0.2433E+00
     14.885  0.0000E+00  0.0000E+00  0.2433E+00  0.2433E+00
     14.981  0.0000E+00  0.0000E+00  0.2433E+00  0.2433E+00
     15.077  0.0000E+00  0.0000E+00  0.2433E+00  0.2433E+00
     15.173  0.0000E+00  0.0000E+00  0.2433E+00  0.2433E+00
     15.270  0.0000E+00  0.0000E+00  0.2433E+00  0.2433E+00
     15.366  0.0000E+00  0.0000E+00  0.2433E+00  0.2433E+00
     15.462  0.0000E+00  0.0000E+00  0.2433E+00  0.2433E+00
     15.558  0.0000E+00  0.0000E+00  0.2433E+00  0.2433E+00
     15.654  0.0000E+00  0.0000E+00  0.2433E+00  0.2433E+00
     15.751  0.0000E+00  0.0000E+00  0.2433E+00  0.2433E+00
     15.847  0.0000E+00  0.0000E+00  0.2433E+00  0.2433E+00
     15.943  0.0000E+00  0.0000E+00  0.2433E+00  0.2433E+00
     16.039  0.0000E+00  0.0000E+00  0.2433E+00  0.2433E+00
