   14   14  300    2
  0.3408171E+02  0.5640000E-09  0.5640000E-09  0.1500000E-08  0.5000000E-15
  1.000000000000000E-004
  CAR 
 Crystal                                 
  110    4   73
 
  0.0000000E+00  0.0000000E+00  0.0000000E+00  0.2500000E+00
   1      -16.401676    -16.473039
   2      -15.242805    -15.301751
   3       -8.010664     -7.751819
   4       -6.057585     -6.074850
   5       -5.896031     -5.560236
   6       -5.550955     -4.592340
   7       -5.502603     -4.468032
   8       -5.366494     -4.439084
   9       -5.273571     -4.308317
  10       -5.146358     -4.295788
  11       -5.127146     -3.647479
  12       -5.006766     -3.577177
  13       -4.986747     -3.430291
  14       -4.906941     -3.382260
  15       -4.895919     -3.335653
  16       -4.730882     -3.284537
  17       -4.530995     -3.161548
  18       -4.450366     -3.094861
  19       -4.325206     -3.055695
  20       -4.317956     -2.412335
  21       -4.197213     -2.382160
  22       -4.144196     -2.152700
  23       -4.043067     -1.949903
  24       -3.940210     -1.867935
  25       -3.896276     -1.679402
  26       -3.869761     -1.561417
  27       -3.752887     -1.510463
  28       -3.730546     -1.460646
  29       -3.698592     -1.415123
  30       -3.588347     -1.414852
  31       -3.419810     -1.389617
  32       -3.372217     -1.307540
  33       -3.269768     -1.171045
  34       -3.239098     -1.134602
  35       -3.179926     -0.835988
  36       -3.020812     -0.791993
  37       -2.990511     -0.774705
  38       -2.966053     -0.636672
  39       -2.955029     -0.424779
  40       -2.934536     -0.308978
  41       -2.910227     -0.284899
  42       -2.737440     -0.246875
  43       -2.705783     -0.162713
  44       -2.602737     -0.052410
  45       -2.563588     -0.007385
  46       -2.556646      0.113485
  47       -2.525813      0.152578
  48       -2.520942      0.265463
  49       -2.422955      0.341888
  50       -2.358753      0.375641
  51       -2.344108      0.377967
  52       -2.338776      0.419297
  53       -2.148662      0.435720
  54       -2.121351      0.436730
  55       -2.016386      0.527470
  56       -1.966624      0.572237
  57       -1.917361      0.602502
  58       -1.836049      0.739062
  59       -1.603936      0.768480
  60       -1.585214      1.062490
  61       -1.548467      1.103499
  62       -1.504771      1.134438
  63       -1.480511      1.145308
  64       -1.474937      1.191360
  65       -1.275860      1.199375
  66       -1.256332      1.207143
  67       -1.230306      1.313310
  68       -1.014519      1.391496
  69       -0.989980      1.504265
  70       -0.689340      1.505261
  71       -0.679330      1.575678
  72       -0.525401      1.589763
  73       -0.293091      1.610675
 
  0.5000000E+00  0.0000000E+00  0.0000000E+00  0.2500000E+00
   1      -16.398645    -16.470288
   2      -15.241190    -15.300307
   3       -6.946011     -6.640587
   4       -6.881845     -6.575549
   5       -6.039068     -6.066803
   6       -5.632126     -5.276700
   7       -5.270575     -4.729522
   8       -5.259508     -4.539036
   9       -5.031736     -3.738484
  10       -4.993211     -3.632296
  11       -4.890259     -3.532041
  12       -4.857777     -3.511528
  13       -4.811499     -3.462799
  14       -4.803198     -3.275254
  15       -4.636898     -3.051871
  16       -4.520210     -2.980211
  17       -4.458247     -2.944452
  18       -4.370905     -2.737884
  19       -4.367215     -2.676834
  20       -4.280453     -2.556062
  21       -4.260456     -2.551535
  22       -4.184497     -2.216949
  23       -4.178509     -2.173142
  24       -4.071672     -2.041791
  25       -4.045300     -1.978415
  26       -3.801677     -1.961454
  27       -3.597135     -1.870257
  28       -3.596069     -1.499607
  29       -3.559861     -1.493551
  30       -3.546717     -1.487150
  31       -3.531358     -1.444157
  32       -3.504971     -1.440949
  33       -3.502954     -1.225838
  34       -3.447889     -1.144358
  35       -3.438471     -1.076954
  36       -3.384637     -0.942210
  37       -3.360278     -0.892751
  38       -3.185724     -0.844275
  39       -3.160260     -0.602173
  40       -3.151314     -0.570929
  41       -3.015007     -0.439425
  42       -2.846885     -0.365275
  43       -2.841391     -0.271902
  44       -2.752633     -0.085128
  45       -2.693887     -0.017058
  46       -2.616081      0.031546
  47       -2.561175      0.070961
  48       -2.397128      0.108688
  49       -2.355253      0.285184
  50       -2.285939      0.298164
  51       -2.243324      0.324427
  52       -2.207244      0.377406
  53       -2.168336      0.410439
  54       -2.167500      0.414924
  55       -2.121496      0.484956
  56       -2.109421      0.551899
  57       -2.042585      0.588719
  58       -2.027600      0.625025
  59       -1.979663      0.681225
  60       -1.943999      0.721778
  61       -1.856681      0.780004
  62       -1.809225      0.832372
  63       -1.740884      0.861429
  64       -1.655282      0.918034
  65       -1.617047      1.151122
  66       -1.446339      1.162398
  67       -1.399406      1.211183
  68       -1.324067      1.243800
  69       -1.130573      1.325064
  70       -1.124984      1.372652
  71       -1.021434      1.499596
  72       -0.513946      1.545391
  73        0.355577      2.082306
 
  0.0000000E+00  0.5000000E+00  0.0000000E+00  0.2500000E+00
   1      -15.886588    -15.953017
   2      -15.879966    -15.946917
   3       -6.925458     -6.617973
   4       -6.858472     -6.545238
   5       -5.477020     -4.987714
   6       -5.456731     -4.973793
   7       -5.042595     -4.117196
   8       -4.999513     -4.088742
   9       -4.955598     -3.975735
  10       -4.917554     -3.964547
  11       -4.893281     -3.713374
  12       -4.861161     -3.677467
  13       -4.661193     -3.500323
  14       -4.643846     -3.435408
  15       -4.559282     -3.275505
  16       -4.496707     -3.268035
  17       -4.494161     -3.029363
  18       -4.388915     -2.911805
  19       -4.376312     -2.786994
  20       -4.368758     -2.664114
  21       -4.263748     -2.560591
  22       -4.256378     -2.474666
  23       -4.218026     -2.190881
  24       -4.193755     -2.165589
  25       -3.877488     -1.950215
  26       -3.824269     -1.938384
  27       -3.791914     -1.910912
  28       -3.744085     -1.909667
  29       -3.568077     -1.478484
  30       -3.534196     -1.477989
  31       -3.510799     -1.476671
  32       -3.468625     -1.400689
  33       -3.459221     -1.196128
  34       -3.392643     -1.194767
  35       -3.387693     -1.112774
  36       -3.369031     -1.021031
  37       -3.338904     -0.947323
  38       -3.338548     -0.851217
  39       -3.201127     -0.691857
  40       -3.147582     -0.467764
  41       -3.061170     -0.451892
  42       -2.978255     -0.355790
  43       -2.771402     -0.218368
  44       -2.696165     -0.102463
  45       -2.684835     -0.081619
  46       -2.674756      0.065619
  47       -2.611015      0.074197
  48       -2.592294      0.114456
  49       -2.508602      0.247661
  50       -2.486390      0.280444
  51       -2.244629      0.311052
  52       -2.216459      0.322189
  53       -2.174492      0.404154
  54       -2.146613      0.453611
  55       -2.123654      0.546325
  56       -2.120022      0.570218
  57       -2.099206      0.608225
  58       -2.094115      0.639550
  59       -1.942493      0.687768
  60       -1.939570      0.716632
  61       -1.930247      0.737573
  62       -1.923561      0.790222
  63       -1.804637      0.822582
  64       -1.773674      0.833353
  65       -1.712375      1.141349
  66       -1.644476      1.163010
  67       -1.342942      1.188790
  68       -1.280957      1.274697
  69       -1.188224      1.350178
  70       -1.141598      1.369989
  71       -1.122568      1.497389
  72       -1.089117      1.503201
  73        0.433056      2.138295
 
  0.5000000E+00  0.5000000E+00  0.0000000E+00  0.2500000E+00
   1      -15.884117    -15.950773
   2      -15.877511    -15.944691
   3       -6.063354     -5.670236
   4       -6.049388     -5.653277
   5       -5.947259     -5.551755
   6       -5.849924     -5.440041
   7       -5.136290     -4.666130
   8       -5.109060     -4.646586
   9       -4.660651     -4.118379
  10       -4.639009     -4.094346
  11       -4.550097     -4.042663
  12       -4.521841     -4.032911
  13       -4.484772     -2.963814
  14       -4.432531     -2.859992
  15       -4.383331     -2.815940
  16       -4.382813     -2.806826
  17       -4.369275     -2.593248
  18       -4.341707     -2.449507
  19       -4.197339     -2.435228
  20       -4.153207     -2.416989
  21       -4.143858     -2.411828
  22       -4.132375     -2.332456
  23       -4.105521     -2.332166
  24       -4.099163     -2.276444
  25       -4.089822     -2.045328
  26       -4.045898     -2.008376
  27       -4.019863     -2.005372
  28       -4.013942     -2.001674
  29       -3.952832     -1.964728
  30       -3.881951     -1.930944
  31       -3.880416     -1.909148
  32       -3.837519     -1.905020
  33       -3.586939     -1.493537
  34       -3.543140     -1.417361
  35       -3.538077     -1.402458
  36       -3.522331     -1.379936
  37       -3.203932     -0.651089
  38       -3.202651     -0.607078
  39       -3.182949     -0.469960
  40       -3.181512     -0.433411
  41       -3.138335     -0.426186
  42       -3.071908     -0.419369
  43       -3.064999     -0.414540
  44       -3.029819     -0.368038
  45       -2.937395     -0.366379
  46       -2.928084     -0.352501
  47       -2.859519     -0.320061
  48       -2.787549     -0.225684
  49       -2.721282     -0.164316
  50       -2.677525     -0.078066
  51       -2.606198     -0.068645
  52       -2.604921     -0.022243
  53       -2.401059      0.491582
  54       -2.397039      0.497358
  55       -2.240234      0.504243
  56       -2.225906      0.510324
  57       -2.014284      0.634487
  58       -1.998806      0.782183
  59       -1.937740      0.878977
  60       -1.935805      0.908572
  61       -1.893867      0.941122
  62       -1.879653      0.969634
  63       -1.734820      0.982841
  64       -1.716736      0.989276
  65       -1.575647      1.022467
  66       -1.532280      1.050499
  67       -1.426561      1.145846
  68       -1.413863      1.172120
  69       -1.394875      1.274242
  70       -1.351859      1.274636
  71       -1.315473      1.303041
  72       -1.256151      1.336269
  73       -0.176500      1.827547
