       N       E                     dE             d eps       ncg     rms          rms(c)
DAV:   1     0.811326129233E+03    0.81133E+03   -0.35113E+04  1168   0.106E+03
DAV:   2    -0.195965734616E+01   -0.81329E+03   -0.77421E+03  1216   0.339E+02
DAV:   3    -0.906090605152E+02   -0.88649E+02   -0.79420E+02  1896   0.112E+02
DAV:   4    -0.101205517523E+03   -0.10596E+02   -0.97850E+01  1846   0.383E+01
DAV:   5    -0.101952326662E+03   -0.74681E+00   -0.64982E+00  1918   0.899E+00
DAV:   6    -0.102051333190E+03   -0.99007E-01   -0.88679E-01  1895   0.195E+00
DAV:   7    -0.102060170628E+03   -0.88374E-02   -0.85721E-02  1880   0.470E-01
DAV:   8    -0.102060996486E+03   -0.82586E-03   -0.81231E-03  1424   0.120E-01
DAV:   9    -0.102061102917E+03   -0.10643E-03   -0.10555E-03  1184   0.429E-02
DAV:  10    -0.102061119180E+03   -0.16263E-04   -0.16209E-04  1000   0.212E-02    0.382E+01
RMM:  11    -0.115348983013E+03   -0.13288E+02   -0.22570E+02  1171   0.948E+01    0.721E+01
RMM:  12    -0.108620089500E+03    0.67289E+01   -0.12189E+02  1172   0.682E+01    0.610E+01
RMM:  13    -0.939725138194E+02    0.14648E+02   -0.21204E+01  1174   0.318E+01    0.434E+01
RMM:  14    -0.965512678259E+02   -0.25788E+01   -0.27187E+01  1181   0.285E+01    0.468E+01
RMM:  15    -0.953957362533E+02    0.11555E+01   -0.14642E+01  1201   0.213E+01    0.393E+01
RMM:  16    -0.894810138199E+02    0.59147E+01   -0.86591E+00  1196   0.164E+01    0.197E+01
RMM:  17    -0.897010557064E+02   -0.22004E+00   -0.48266E+00  1192   0.110E+01    0.237E+01
RMM:  18    -0.884743290361E+02    0.12267E+01   -0.19001E+00  1191   0.698E+00    0.159E+01
RMM:  19    -0.886739110139E+02   -0.19958E+00   -0.46997E-01  1439   0.153E+00    0.165E+01
RMM:  20    -0.886967443645E+02   -0.22833E-01   -0.93536E-02  1370   0.844E-01    0.168E+01
RMM:  21    -0.886135987386E+02    0.83146E-01   -0.30969E-01  1185   0.219E+00    0.165E+01
RMM:  22    -0.882413778767E+02    0.37222E+00   -0.26332E+00  1171   0.685E+00    0.161E+01
RMM:  23    -0.875615452711E+02    0.67983E+00   -0.14122E+00  1193   0.571E+00    0.117E+01
RMM:  24    -0.874402813006E+02    0.12126E+00   -0.20114E+00  1213   0.555E+00    0.134E+01
RMM:  25    -0.868998152433E+02    0.54047E+00   -0.10640E+00  1213   0.457E+00    0.111E+01
RMM:  26    -0.867580548737E+02    0.14176E+00   -0.55492E-01  1339   0.217E+00    0.971E+00
RMM:  27    -0.868313934032E+02   -0.73339E-01   -0.49894E-01  1189   0.303E+00    0.958E+00
RMM:  28    -0.875657092236E+02   -0.73432E+00   -0.69883E-01  1201   0.375E+00    0.655E+00
RMM:  29    -0.894693925494E+02   -0.19037E+01   -0.13317E+00  1169   0.525E+00    0.815E+00
RMM:  30    -0.901804233133E+02   -0.71103E+00   -0.64680E-01  1185   0.387E+00    0.527E+00
RMM:  31    -0.903109622900E+02   -0.13054E+00   -0.28000E-01  1279   0.182E+00    0.402E+00
RMM:  32    -0.908174841421E+02   -0.50652E+00   -0.29527E-01  1185   0.185E+00    0.333E+00
RMM:  33    -0.917736674653E+02   -0.95618E+00   -0.80473E-01  1193   0.255E+00    0.214E+00
RMM:  34    -0.922054653380E+02   -0.43180E+00   -0.36382E-01  1285   0.137E+00    0.210E+00
RMM:  35    -0.925113453124E+02   -0.30588E+00   -0.27654E-01  1220   0.131E+00    0.147E+00
RMM:  36    -0.928181418445E+02   -0.30680E+00   -0.33347E-01  1231   0.109E+00    0.132E+00
RMM:  37    -0.929825724954E+02   -0.16443E+00   -0.22061E-01  1267   0.774E-01    0.963E-01
RMM:  38    -0.930594044188E+02   -0.76832E-01   -0.99065E-02  1301   0.500E-01    0.830E-01
RMM:  39    -0.931329293769E+02   -0.73525E-01   -0.52777E-02  1224   0.461E-01    0.558E-01
RMM:  40    -0.932556284688E+02   -0.12270E+00   -0.90325E-02  1206   0.517E-01    0.403E-01
RMM:  41    -0.933492887222E+02   -0.93660E-01   -0.49281E-02  1222   0.379E-01    0.262E-01
RMM:  42    -0.933869730362E+02   -0.37684E-01   -0.19084E-02  1316   0.198E-01    0.263E-01
RMM:  43    -0.933995647669E+02   -0.12592E-01   -0.40139E-03  1094   0.104E-01    0.225E-01
RMM:  44    -0.934181636166E+02   -0.18599E-01   -0.32199E-03  1076   0.131E-01    0.165E-01
RMM:  45    -0.934259887758E+02   -0.78252E-02   -0.18515E-03  1031   0.106E-01    0.173E-01
RMM:  46    -0.934272320109E+02   -0.12432E-02   -0.61569E-04   840   0.797E-02    0.849E-02
RMM:  47    -0.934282231307E+02   -0.99112E-03   -0.27368E-04   744   0.505E-02    0.597E-02
RMM:  48    -0.934289608444E+02   -0.73771E-03   -0.14114E-04   720   0.417E-02    0.507E-02
RMM:  49    -0.934305460396E+02   -0.15852E-02   -0.27423E-04   737   0.402E-02    0.478E-02
RMM:  50    -0.934310759580E+02   -0.52992E-03   -0.33077E-04   774   0.411E-02    0.262E-02
RMM:  51    -0.934311448996E+02   -0.68942E-04   -0.74821E-05   675   0.302E-02
   1 F= -.93431145E+02 E0= -.93428498E+02  d E =-.934311E+02  mag=    32.0390
       N       E                     dE             d eps       ncg     rms          rms(c)
DAV:   1    -0.938442826289E+02   -0.41321E+00   -0.30580E+02  1248   0.350E+01    0.152E+01
RMM:   2    -0.948470857454E+02   -0.10028E+01   -0.16518E+01  1201   0.145E+01    0.128E+01
RMM:   3    -0.953701945932E+02   -0.52311E+00   -0.26259E+00  1310   0.700E+00    0.137E+01
RMM:   4    -0.956291295280E+02   -0.25893E+00   -0.20357E+00  1199   0.742E+00    0.153E+01
RMM:   5    -0.959265328006E+02   -0.29740E+00   -0.19402E+00  1198   0.673E+00    0.158E+01
RMM:   6    -0.952432819551E+02    0.68325E+00   -0.12433E+00  1190   0.628E+00    0.750E+00
RMM:   7    -0.955245493692E+02   -0.28127E+00   -0.14077E+00  1201   0.593E+00    0.117E+01
RMM:   8    -0.951701746626E+02    0.35437E+00   -0.76591E-01  1197   0.506E+00    0.552E+00
RMM:   9    -0.951947627076E+02   -0.24588E-01   -0.30318E-01  1185   0.299E+00    0.475E+00
RMM:  10    -0.951386117220E+02    0.56151E-01   -0.10201E-01  1184   0.187E+00    0.167E+00
RMM:  11    -0.951442689692E+02   -0.56572E-02   -0.45894E-02  1224   0.939E-01    0.168E+00
RMM:  12    -0.951366926757E+02    0.75763E-02   -0.17348E-02  1213   0.685E-01    0.111E+00
RMM:  13    -0.951389115253E+02   -0.22188E-02   -0.18460E-02  1224   0.609E-01    0.115E+00
RMM:  14    -0.951374324816E+02    0.14790E-02   -0.10449E-02  1216   0.505E-01    0.671E-01
RMM:  15    -0.951392661971E+02   -0.18337E-02   -0.53797E-03  1262   0.282E-01    0.375E-01
RMM:  16    -0.951399488243E+02   -0.68263E-03   -0.30497E-03  1180   0.276E-01    0.356E-01
RMM:  17    -0.951401963525E+02   -0.24753E-03   -0.12309E-03  1116   0.171E-01    0.157E-01
RMM:  18    -0.951406513137E+02   -0.45496E-03   -0.51978E-04   945   0.110E-01    0.151E-01
RMM:  19    -0.951408850292E+02   -0.23372E-03   -0.35192E-04   771   0.103E-01    0.955E-02
RMM:  20    -0.951412589832E+02   -0.37395E-03   -0.28998E-04   769   0.681E-02    0.991E-02
RMM:  21    -0.951414855553E+02   -0.22657E-03   -0.23395E-04   722   0.666E-02    0.529E-02
RMM:  22    -0.951415896898E+02   -0.10413E-03   -0.15268E-04   670   0.597E-02    0.437E-02
RMM:  23    -0.951416849444E+02   -0.95255E-04    0.12059E-04   648   0.418E-02
   2 F= -.95141685E+02 E0= -.95139105E+02  d E =-.171054E+01  mag=    32.0024
       N       E                     dE             d eps       ncg     rms          rms(c)
DAV:   1    -0.952102345591E+02   -0.68645E-01   -0.40088E+01  1218   0.134E+01    0.349E+00
RMM:   2    -0.953680537050E+02   -0.15782E+00   -0.22584E+00  1217   0.542E+00    0.438E+00
RMM:   3    -0.956938978931E+02   -0.32584E+00   -0.66025E-01  1220   0.393E+00    0.101E+01
RMM:   4    -0.953786043626E+02    0.31529E+00   -0.24808E-01  1191   0.289E+00    0.265E+00
RMM:   5    -0.953661782804E+02    0.12426E-01   -0.14057E-01  1214   0.140E+00    0.194E+00
RMM:   6    -0.953565276306E+02    0.96506E-02   -0.64685E-02  1253   0.607E-01    0.151E+00
RMM:   7    -0.953551359251E+02    0.13917E-02   -0.41795E-02  1245   0.296E-01    0.146E+00
RMM:   8    -0.953503542692E+02    0.47817E-02   -0.25773E-02  1246   0.219E-01    0.133E+00
RMM:   9    -0.953488896033E+02    0.14647E-02   -0.67971E-02  1223   0.957E-01    0.172E+00
RMM:  10    -0.953401540040E+02    0.87356E-02   -0.30110E-02  1203   0.826E-01    0.837E-01
RMM:  11    -0.953732617111E+02   -0.33108E-01   -0.27052E-02  1231   0.663E-01    0.133E+00
RMM:  12    -0.953864400429E+02   -0.13178E-01   -0.13536E-02  1179   0.582E-01    0.597E-01
RMM:  13    -0.954063748318E+02   -0.19935E-01   -0.84432E-03  1199   0.343E-01    0.389E-01
RMM:  14    -0.954133535368E+02   -0.69787E-02   -0.33999E-03  1174   0.234E-01    0.230E-01
RMM:  15    -0.954195885309E+02   -0.62350E-02   -0.26376E-03  1184   0.170E-01    0.234E-01
RMM:  16    -0.954247015614E+02   -0.51130E-02   -0.15839E-03  1126   0.150E-01    0.190E-01
RMM:  17    -0.954292189697E+02   -0.45174E-02   -0.12991E-03  1048   0.116E-01    0.142E-01
RMM:  18    -0.954306910310E+02   -0.14721E-02   -0.63483E-04   876   0.100E-01    0.140E-01
RMM:  19    -0.954317317907E+02   -0.10408E-02   -0.43793E-04   762   0.870E-02    0.764E-02
RMM:  20    -0.954320520491E+02   -0.32026E-03   -0.26134E-04   695   0.519E-02    0.534E-02
RMM:  21    -0.954320893699E+02   -0.37321E-04   -0.12702E-04   631   0.438E-02
   3 F= -.95432089E+02 E0= -.95430816E+02  d E =-.200094E+01  mag=    32.9941
       N       E                     dE             d eps       ncg     rms          rms(c)
DAV:   1    -0.945001716085E+02    0.93188E+00   -0.15748E+02  1186   0.276E+01    0.980E+00
RMM:   2    -0.955603014802E+02   -0.10601E+01   -0.10782E+01  1241   0.972E+00    0.674E+00
RMM:   3    -0.960510388492E+02   -0.49074E+00   -0.25918E+00  1194   0.893E+00    0.134E+01
RMM:   4    -0.955219527185E+02    0.52909E+00   -0.10603E+00  1193   0.619E+00    0.851E+00
RMM:   5    -0.953374582843E+02    0.18449E+00   -0.37262E-01  1185   0.330E+00    0.419E+00
RMM:   6    -0.953184510720E+02    0.19007E-01   -0.11142E-01  1202   0.186E+00    0.282E+00
RMM:   7    -0.953137604489E+02    0.46906E-02   -0.41993E-02  1200   0.110E+00    0.177E+00
RMM:   8    -0.953131159741E+02    0.64447E-03   -0.24243E-02  1221   0.594E-01    0.133E+00
RMM:   9    -0.953199319563E+02   -0.68160E-02   -0.56344E-02  1228   0.894E-01    0.162E+00
RMM:  10    -0.953157679199E+02    0.41640E-02   -0.14753E-02  1212   0.630E-01    0.112E+00
RMM:  11    -0.953141903888E+02    0.15775E-02   -0.48205E-03  1208   0.338E-01    0.774E-01
RMM:  12    -0.953135200418E+02    0.67035E-03   -0.44024E-03  1189   0.349E-01    0.500E-01
RMM:  13    -0.953140997604E+02   -0.57972E-03   -0.22673E-03  1200   0.224E-01    0.382E-01
RMM:  14    -0.953138319046E+02    0.26786E-03   -0.10150E-03  1097   0.177E-01    0.301E-01
RMM:  15    -0.953136375821E+02    0.19432E-03   -0.66891E-04  1019   0.133E-01    0.162E-01
RMM:  16    -0.953137060856E+02   -0.68503E-04   -0.53443E-04   867   0.129E-01
   4 F= -.95313706E+02 E0= -.95312146E+02  d E =-.188256E+01  mag=    32.9992
       N       E                     dE             d eps       ncg     rms          rms(c)
DAV:   1    -0.951642050825E+02    0.14943E+00   -0.69333E+01  1185   0.180E+01    0.410E+00
RMM:   2    -0.954688223185E+02   -0.30462E+00   -0.35746E+00  1204   0.636E+00    0.266E+00
RMM:   3    -0.955467138185E+02   -0.77892E-01   -0.51775E-01  1237   0.360E+00    0.411E+00
RMM:   4    -0.954895189888E+02    0.57195E-01   -0.16254E-01  1196   0.239E+00    0.218E+00
RMM:   5    -0.955016723647E+02   -0.12153E-01   -0.61267E-02  1242   0.115E+00    0.313E+00
RMM:   6    -0.954769528049E+02    0.24720E-01   -0.27513E-02  1189   0.913E-01    0.113E+00
RMM:   7    -0.954854632348E+02   -0.85104E-02   -0.36585E-02  1207   0.969E-01    0.170E+00
RMM:   8    -0.954824170525E+02    0.30462E-02   -0.28464E-02  1243   0.778E-01    0.925E-01
RMM:   9    -0.954808768496E+02    0.15402E-02   -0.86401E-03  1178   0.538E-01    0.545E-01
RMM:  10    -0.954800775084E+02    0.79934E-03   -0.35554E-03  1188   0.303E-01    0.269E-01
RMM:  11    -0.954799897838E+02    0.87725E-04   -0.12979E-03  1179   0.175E-01    0.181E-01
RMM:  12    -0.954801244671E+02   -0.13468E-03   -0.14026E-03  1087   0.151E-01    0.163E-01
RMM:  13    -0.954804865865E+02   -0.36212E-03   -0.92953E-04  1109   0.148E-01    0.232E-01
RMM:  14    -0.954806046316E+02   -0.11805E-03   -0.44087E-04   885   0.112E-01    0.106E-01
RMM:  15    -0.954806569748E+02   -0.52343E-04   -0.13583E-04   625   0.758E-02
   5 F= -.95480657E+02 E0= -.95479389E+02  d E =-.204951E+01  mag=    33.0001
       N       E                     dE             d eps       ncg     rms          rms(c)
DAV:   1    -0.952485833933E+02    0.23202E+00   -0.58080E+01  1176   0.244E+01    0.634E+00
RMM:   2    -0.957744771245E+02   -0.52589E+00   -0.22794E+00  1191   0.707E+00    0.628E+00
RMM:   3    -0.964638557610E+02   -0.68938E+00   -0.17228E+00  1202   0.705E+00    0.149E+01
RMM:   4    -0.957611788432E+02    0.70268E+00   -0.57863E-01  1191   0.462E+00    0.417E+00
RMM:   5    -0.957424362928E+02    0.18743E-01   -0.14972E-01  1190   0.199E+00    0.175E+00
RMM:   6    -0.957429322280E+02   -0.49594E-03   -0.46562E-02  1280   0.872E-01    0.133E+00
RMM:   7    -0.957386733833E+02    0.42588E-02   -0.13628E-02  1217   0.594E-01    0.769E-01
RMM:   8    -0.957434761293E+02   -0.48027E-02   -0.11076E-02  1278   0.390E-01    0.102E+00
RMM:   9    -0.957443276804E+02   -0.85155E-03   -0.11480E-02  1211   0.518E-01    0.108E+00
RMM:  10    -0.957415407296E+02    0.27870E-02   -0.10311E-02  1226   0.462E-01    0.478E-01
RMM:  11    -0.957427017765E+02   -0.11610E-02   -0.46351E-03  1223   0.326E-01    0.514E-01
RMM:  12    -0.957422052318E+02    0.49654E-03   -0.24942E-03  1166   0.278E-01    0.386E-01
RMM:  13    -0.957423018188E+02   -0.96587E-04   -0.13060E-03  1144   0.180E-01    0.241E-01
RMM:  14    -0.957422397975E+02    0.62021E-04   -0.54577E-04   925   0.136E-01
   6 F= -.95742240E+02 E0= -.95742266E+02  d E =-.261583E+00  mag=    33.0028
       N       E                     dE             d eps       ncg     rms          rms(c)
DAV:   1    -0.955360394556E+02    0.20626E+00   -0.34604E+01  1170   0.187E+01    0.495E+00
RMM:   2    -0.957946128879E+02   -0.25857E+00   -0.12858E+00  1194   0.514E+00    0.346E+00
RMM:   3    -0.959450796910E+02   -0.15047E+00   -0.59264E-01  1197   0.429E+00    0.598E+00
RMM:   4    -0.958089678479E+02    0.13611E+00   -0.18847E-01  1203   0.269E+00    0.183E+00
RMM:   5    -0.958122424625E+02   -0.32746E-02   -0.55035E-02  1225   0.107E+00    0.139E+00
RMM:   6    -0.958063760697E+02    0.58664E-02   -0.16678E-02  1229   0.557E-01    0.718E-01
RMM:   7    -0.958085537877E+02   -0.21777E-02   -0.11266E-02  1202   0.553E-01    0.920E-01
RMM:   8    -0.958127077166E+02   -0.41539E-02   -0.14482E-02  1230   0.494E-01    0.761E-01
RMM:   9    -0.958132340884E+02   -0.52637E-03   -0.10038E-02  1213   0.473E-01    0.625E-01
RMM:  10    -0.958126961493E+02    0.53794E-03   -0.38203E-03  1251   0.271E-01    0.198E-01
RMM:  11    -0.958140923435E+02   -0.13962E-02   -0.17781E-03  1152   0.135E-01    0.146E-01
RMM:  12    -0.958149291246E+02   -0.83678E-03   -0.99841E-04   998   0.136E-01    0.157E-01
RMM:  13    -0.958153125531E+02   -0.38343E-03   -0.65311E-04   838   0.118E-01    0.808E-02
RMM:  14    -0.958157309161E+02   -0.41836E-03   -0.50092E-04   726   0.877E-02    0.116E-01
RMM:  15    -0.958159323327E+02   -0.20142E-03   -0.36953E-04   663   0.874E-02    0.408E-02
RMM:  16    -0.958161651665E+02   -0.23283E-03   -0.30604E-04   649   0.441E-02    0.499E-02
RMM:  17    -0.958162761320E+02   -0.11097E-03   -0.25552E-04   635   0.447E-02    0.195E-02
RMM:  18    -0.958164025609E+02   -0.12643E-03   -0.23485E-04   619   0.202E-02    0.153E-02
RMM:  19    -0.958164981827E+02   -0.95622E-04   -0.20327E-04   582   0.179E-02
   7 F= -.95816498E+02 E0= -.95818573E+02  d E =-.335841E+00  mag=    33.0598
       N       E                     dE             d eps       ncg     rms          rms(c)
DAV:   1    -0.958142872578E+02    0.21153E-02   -0.49738E+00  1186   0.512E+00    0.121E+00
RMM:   2    -0.958435919299E+02   -0.29305E-01   -0.28727E-01  1257   0.185E+00    0.764E-01
RMM:   3    -0.958558547199E+02   -0.12263E-01   -0.57619E-02  1214   0.124E+00    0.192E+00
RMM:   4    -0.958416877247E+02    0.14167E-01   -0.14651E-02  1189   0.764E-01    0.381E-01
RMM:   5    -0.958422005536E+02   -0.51283E-03   -0.32526E-03  1244   0.238E-01    0.337E-01
RMM:   6    -0.958419389573E+02    0.26160E-03   -0.89433E-04   969   0.128E-01    0.265E-01
RMM:   7    -0.958423659958E+02   -0.42704E-03   -0.21574E-03  1215   0.197E-01    0.383E-01
RMM:   8    -0.958422707998E+02    0.95196E-04   -0.23654E-03  1179   0.198E-01    0.286E-01
RMM:   9    -0.958421073412E+02    0.16346E-03   -0.92753E-04  1058   0.152E-01    0.160E-01
RMM:  10    -0.958420618703E+02    0.45471E-04   -0.33767E-04   717   0.872E-02
   8 F= -.95842062E+02 E0= -.95843890E+02  d E =-.255637E-01  mag=    33.1040
       N       E                     dE             d eps       ncg     rms          rms(c)
DAV:   1    -0.958379023063E+02    0.42050E-02   -0.12102E+00  1169   0.252E+00    0.572E-01
RMM:   2    -0.958449497172E+02   -0.70474E-02   -0.72531E-02  1282   0.909E-01    0.294E-01
RMM:   3    -0.958461076323E+02   -0.11579E-02   -0.10610E-02  1240   0.491E-01    0.531E-01
RMM:   4    -0.958449677794E+02    0.11399E-02   -0.25205E-03  1177   0.299E-01    0.213E-01
RMM:   5    -0.958449140917E+02    0.53688E-04   -0.76516E-04   955   0.117E-01
   9 F= -.95844914E+02 E0= -.95846574E+02  d E =-.284159E-01  mag=    33.1157
       N       E                     dE             d eps       ncg     rms          rms(c)
DAV:   1    -0.958368231726E+02    0.81446E-02   -0.17088E+00  1168   0.422E+00    0.944E-01
RMM:   2    -0.958498517226E+02   -0.13029E-01   -0.50112E-02  1199   0.110E+00    0.780E-01
RMM:   3    -0.958566590982E+02   -0.68074E-02   -0.27111E-02  1195   0.925E-01    0.127E+00
RMM:   4    -0.958503810772E+02    0.62780E-02   -0.77732E-03  1181   0.565E-01    0.309E-01
RMM:   5    -0.958506704930E+02   -0.28942E-03   -0.18418E-03  1173   0.217E-01    0.188E-01
RMM:   6    -0.958505892963E+02    0.81197E-04   -0.47439E-04   795   0.835E-02
  10 F= -.95850589E+02 E0= -.95852618E+02  d E =-.567520E-02  mag=    33.1119
       N       E                     dE             d eps       ncg     rms          rms(c)
DAV:   1    -0.958052924917E+02    0.45378E-01   -0.61803E+00  1168   0.807E+00    0.184E+00
RMM:   2    -0.958600317600E+02   -0.54739E-01   -0.21786E-01  1193   0.236E+00    0.205E+00
RMM:   3    -0.958818698789E+02   -0.21838E-01   -0.13783E-01  1193   0.212E+00    0.293E+00
RMM:   4    -0.958565045153E+02    0.25365E-01   -0.38514E-02  1195   0.121E+00    0.112E+00
RMM:   5    -0.958518487047E+02    0.46558E-02   -0.10620E-02  1178   0.599E-01    0.321E-01
RMM:   6    -0.958522939931E+02   -0.44529E-03   -0.34460E-03  1287   0.238E-01    0.381E-01
RMM:   7    -0.958519505089E+02    0.34348E-03   -0.14340E-03  1156   0.188E-01    0.211E-01
RMM:   8    -0.958525039323E+02   -0.55342E-03   -0.13225E-03  1181   0.155E-01    0.208E-01
RMM:   9    -0.958530611879E+02   -0.55726E-03   -0.13521E-03  1173   0.192E-01    0.250E-01
RMM:  10    -0.958530821006E+02   -0.20913E-04   -0.62341E-04  1012   0.142E-01
  11 F= -.95853082E+02 E0= -.95856031E+02  d E =-.816801E-02  mag=    33.0754
       N       E                     dE             d eps       ncg     rms          rms(c)
DAV:   1    -0.958501588382E+02    0.29023E-02   -0.81453E-01  1168   0.289E+00    0.641E-01
RMM:   2    -0.958567283491E+02   -0.65695E-02   -0.33057E-02  1234   0.852E-01    0.494E-01
RMM:   3    -0.958593179878E+02   -0.25896E-02   -0.16989E-02  1210   0.698E-01    0.695E-01
RMM:   4    -0.958568331997E+02    0.24848E-02   -0.33175E-03  1169   0.378E-01    0.223E-01
RMM:   5    -0.958567966645E+02    0.36535E-04   -0.64702E-04   959   0.121E-01
  12 F= -.95856797E+02 E0= -.95859997E+02  d E =-.371456E-02  mag=    33.0704
       N       E                     dE             d eps       ncg     rms          rms(c)
DAV:   1    -0.958069171114E+02    0.49916E-01   -0.73632E+00  1168   0.868E+00    0.191E+00
RMM:   2    -0.958613866480E+02   -0.54470E-01   -0.26888E-01  1232   0.241E+00    0.136E+00
RMM:   3    -0.958834317414E+02   -0.22045E-01   -0.11741E-01  1208   0.187E+00    0.196E+00
RMM:   4    -0.958633455617E+02    0.20086E-01   -0.23981E-02  1185   0.103E+00    0.536E-01
RMM:   5    -0.958634191047E+02   -0.73543E-04   -0.47938E-03  1237   0.305E-01    0.413E-01
RMM:   6    -0.958631716443E+02    0.24746E-03   -0.11534E-03  1047   0.125E-01    0.325E-01
RMM:   7    -0.958639423533E+02   -0.77071E-03   -0.35628E-03  1208   0.276E-01    0.477E-01
RMM:   8    -0.958637736227E+02    0.16873E-03   -0.29452E-03  1220   0.274E-01    0.354E-01
RMM:   9    -0.958633714987E+02    0.40212E-03   -0.10561E-03  1141   0.162E-01    0.117E-01
RMM:  10    -0.958633825824E+02   -0.11084E-04   -0.34136E-04   776   0.795E-02
  13 F= -.95863383E+02 E0= -.95866298E+02  d E =-.103005E-01  mag=    33.0718
       N       E                     dE             d eps       ncg     rms          rms(c)
DAV:   1    -0.956309849891E+02    0.23239E+00   -0.29553E+01  1168   0.175E+01    0.402E+00
RMM:   2    -0.958537938292E+02   -0.22281E+00   -0.11488E+00  1206   0.508E+00    0.274E+00
RMM:   3    -0.959283904727E+02   -0.74597E-01   -0.43468E-01  1206   0.355E+00    0.336E+00
RMM:   4    -0.958657718402E+02    0.62619E-01   -0.10564E-01  1199   0.204E+00    0.899E-01
RMM:   5    -0.958666700963E+02   -0.89826E-03   -0.20739E-02  1352   0.525E-01    0.866E-01
RMM:   6    -0.958651144163E+02    0.15557E-02   -0.65444E-03  1206   0.411E-01    0.683E-01
RMM:   7    -0.958684649641E+02   -0.33505E-02   -0.16819E-02  1213   0.606E-01    0.950E-01
RMM:   8    -0.958664228931E+02    0.20421E-02   -0.11416E-02  1239   0.509E-01    0.589E-01
RMM:   9    -0.958648443731E+02    0.15785E-02   -0.50606E-03  1222   0.359E-01    0.248E-01
RMM:  10    -0.958648461657E+02   -0.17925E-05   -0.19355E-03  1196   0.146E-01    0.131E-01
RMM:  11    -0.958649237210E+02   -0.77555E-04   -0.41335E-04   775   0.693E-02
  14 F= -.95864924E+02 E0= -.95867031E+02  d E =-.118416E-01  mag=    33.0840
       N       E                     dE             d eps       ncg     rms          rms(c)
DAV:   1    -0.958153668659E+02    0.49479E-01   -0.65332E+00  1168   0.820E+00    0.183E+00
RMM:   2    -0.958706419520E+02   -0.55275E-01   -0.27511E-01  1206   0.269E+00    0.176E+00
RMM:   3    -0.958957882817E+02   -0.25146E-01   -0.13794E-01  1212   0.207E+00    0.299E+00
RMM:   4    -0.958688230119E+02    0.26965E-01   -0.35122E-02  1191   0.114E+00    0.888E-01
RMM:   5    -0.958665814207E+02    0.22416E-02   -0.93482E-03  1168   0.547E-01    0.342E-01
RMM:   6    -0.958664320234E+02    0.14940E-03   -0.16873E-03  1229   0.154E-01    0.278E-01
RMM:   7    -0.958663612678E+02    0.70756E-04   -0.87439E-04  1099   0.158E-01
  15 F= -.95866361E+02 E0= -.95868243E+02  d E =-.132792E-01  mag=    33.0858
       N       E                     dE             d eps       ncg     rms          rms(c)
DAV:   1    -0.958551883337E+02    0.11244E-01   -0.22619E+00  1168   0.487E+00    0.117E+00
RMM:   2    -0.958757608621E+02   -0.20573E-01   -0.87487E-02  1214   0.134E+00    0.129E+00
RMM:   3    -0.958867853878E+02   -0.11025E-01   -0.57919E-02  1193   0.136E+00    0.201E+00
RMM:   4    -0.958720779867E+02    0.14707E-01   -0.15301E-02  1186   0.794E-01    0.378E-01
RMM:   5    -0.958730391101E+02   -0.96112E-03   -0.31960E-03  1174   0.309E-01    0.217E-01
RMM:   6    -0.958729447666E+02    0.94344E-04   -0.73558E-04   945   0.114E-01
  16 F= -.95872945E+02 E0= -.95874318E+02  d E =-.658350E-02  mag=    33.0883
       N       E                     dE             d eps       ncg     rms          rms(c)
DAV:   1    -0.958601479431E+02    0.12891E-01   -0.18112E+00  1170   0.438E+00    0.998E-01
RMM:   2    -0.958743731141E+02   -0.14225E-01   -0.61109E-02  1226   0.113E+00    0.916E-01
RMM:   3    -0.958831202043E+02   -0.87471E-02   -0.34542E-02  1194   0.105E+00    0.162E+00
RMM:   4    -0.958730942619E+02    0.10026E-01   -0.98262E-03  1179   0.643E-01    0.286E-01
RMM:   5    -0.958739931744E+02   -0.89891E-03   -0.23633E-03  1182   0.237E-01    0.245E-01
RMM:   6    -0.958738694145E+02    0.12376E-03   -0.76495E-04   951   0.118E-01    0.148E-01
RMM:   7    -0.958741507931E+02   -0.28138E-03   -0.93901E-04  1099   0.163E-01    0.257E-01
RMM:   8    -0.958741473837E+02    0.34094E-05   -0.76870E-04  1057   0.143E-01
  17 F= -.95874147E+02 E0= -.95875394E+02  d E =-.778612E-02  mag=    33.0991
       N       E                     dE             d eps       ncg     rms          rms(c)
DAV:   1    -0.958733894164E+02    0.76138E-03   -0.41268E-02  1199   0.706E-01    0.200E-01
RMM:   2    -0.958748353048E+02   -0.14459E-02   -0.65012E-03  1180   0.336E-01    0.523E-01
RMM:   3    -0.958739676184E+02    0.86769E-03   -0.24123E-03  1167   0.291E-01    0.217E-01
RMM:   4    -0.958739854889E+02   -0.17870E-04   -0.51133E-04   856   0.122E-01
  18 F= -.95873985E+02 E0= -.95874983E+02  d E =-.762422E-02  mag=    33.1082
       N       E                     dE             d eps       ncg     rms          rms(c)
DAV:   1    -0.958711486477E+02    0.28190E-02   -0.33103E-01  1168   0.187E+00    0.433E-01
RMM:   2    -0.958739097012E+02   -0.27611E-02   -0.11888E-02  1187   0.556E-01    0.452E-01
RMM:   3    -0.958752074328E+02   -0.12977E-02   -0.64903E-03  1198   0.425E-01    0.640E-01
RMM:   4    -0.958737856602E+02    0.14218E-02   -0.18798E-03  1134   0.263E-01    0.130E-01
RMM:   5    -0.958738947716E+02   -0.10911E-03   -0.35690E-04   790   0.102E-01    0.106E-01
RMM:   6    -0.958738818848E+02    0.12887E-04   -0.12224E-04   606   0.723E-02
  19 F= -.95873882E+02 E0= -.95875127E+02  d E =-.752062E-02  mag=    33.1147
       N       E                     dE             d eps       ncg     rms          rms(c)
DAV:   1    -0.958728776554E+02    0.10171E-02   -0.15854E-01  1172   0.130E+00    0.313E-01
RMM:   2    -0.958743497362E+02   -0.14721E-02   -0.60462E-03  1217   0.349E-01    0.363E-01
RMM:   3    -0.958749465101E+02   -0.59677E-03   -0.40468E-03  1192   0.345E-01    0.483E-01
RMM:   4    -0.958740935863E+02    0.85292E-03   -0.97591E-04  1070   0.202E-01    0.859E-02
RMM:   5    -0.958741487529E+02   -0.55167E-04   -0.14616E-04   617   0.727E-02
  20 F= -.95874149E+02 E0= -.95875259E+02  d E =-.778749E-02  mag=    33.1175
       N       E                     dE             d eps       ncg     rms          rms(c)
DAV:   1    -0.958708676778E+02    0.32259E-02   -0.72442E-01  1168   0.274E+00    0.595E-01
RMM:   2    -0.958760606928E+02   -0.51930E-02   -0.19345E-02  1195   0.695E-01    0.510E-01
RMM:   3    -0.958783572007E+02   -0.22965E-02   -0.11223E-02  1192   0.599E-01    0.749E-01
RMM:   4    -0.958760698127E+02    0.22874E-02   -0.29839E-03  1158   0.358E-01    0.133E-01
RMM:   5    -0.958761263223E+02   -0.56510E-04   -0.43203E-04   858   0.997E-02
  21 F= -.95876126E+02 E0= -.95876994E+02  d E =-.197757E-02  mag=    33.1222
       N       E                     dE             d eps       ncg     rms          rms(c)
DAV:   1    -0.958611564879E+02    0.14913E-01   -0.22332E+00  1168   0.481E+00    0.103E+00
RMM:   2    -0.958761644045E+02   -0.15008E-01   -0.55390E-02  1202   0.116E+00    0.738E-01
RMM:   3    -0.958820134073E+02   -0.58490E-02   -0.24048E-02  1194   0.875E-01    0.106E+00
RMM:   4    -0.958771512855E+02    0.48621E-02   -0.67217E-03  1172   0.537E-01    0.195E-01
RMM:   5    -0.958773326451E+02   -0.18136E-03   -0.12598E-03  1167   0.145E-01    0.192E-01
RMM:   6    -0.958772025175E+02    0.13013E-03   -0.32094E-04   754   0.879E-02    0.127E-01
RMM:   7    -0.958772833205E+02   -0.80803E-04   -0.44415E-04   901   0.113E-01
  22 F= -.95877283E+02 E0= -.95878294E+02  d E =-.313457E-02  mag=    33.1349
       N       E                     dE             d eps       ncg     rms          rms(c)
DAV:   1    -0.958748535521E+02    0.23490E-02   -0.32155E-01  1169   0.188E+00    0.434E-01
RMM:   2    -0.958797997812E+02   -0.49462E-02   -0.16092E-02  1203   0.628E-01    0.904E-01
RMM:   3    -0.958774258600E+02    0.23739E-02   -0.93314E-03  1179   0.570E-01    0.408E-01
RMM:   4    -0.958773733877E+02    0.52472E-04   -0.11657E-03  1129   0.211E-01    0.168E-01
RMM:   5    -0.958772628075E+02    0.11058E-03   -0.28385E-04   730   0.100E-01    0.664E-02
RMM:   6    -0.958772851068E+02   -0.22299E-04   -0.78962E-05   625   0.514E-02
  23 F= -.95877285E+02 E0= -.95877830E+02  d E =-.313635E-02  mag=    33.1373
       N       E                     dE             d eps       ncg     rms          rms(c)
DAV:   1    -0.958766519432E+02    0.61086E-03   -0.11356E-01  1174   0.109E+00    0.247E-01
RMM:   2    -0.958777546272E+02   -0.11027E-02   -0.38168E-03  1201   0.296E-01    0.302E-01
RMM:   3    -0.958780063970E+02   -0.25177E-03   -0.25864E-03  1170   0.291E-01    0.345E-01
RMM:   4    -0.958776528917E+02    0.35351E-03   -0.50950E-04   904   0.152E-01    0.719E-02
RMM:   5    -0.958776806375E+02   -0.27746E-04   -0.70606E-05   594   0.537E-02
  24 F= -.95877681E+02 E0= -.95878351E+02  d E =-.353188E-02  mag=    33.1383
       N       E                     dE             d eps       ncg     rms          rms(c)
DAV:   1    -0.958725674509E+02    0.50854E-02   -0.10912E+00  1168   0.303E+00    0.613E-01
RMM:   2    -0.958794716780E+02   -0.69042E-02   -0.45800E-02  1233   0.862E-01    0.435E-01
RMM:   3    -0.958819365132E+02   -0.24648E-02   -0.12058E-02  1211   0.605E-01    0.762E-01
RMM:   4    -0.958795108175E+02    0.24257E-02   -0.31172E-03  1177   0.353E-01    0.185E-01
RMM:   5    -0.958796416640E+02   -0.13085E-03   -0.55102E-04   954   0.117E-01    0.119E-01
RMM:   6    -0.958796023172E+02    0.39347E-04   -0.94357E-05   613   0.569E-02
  25 F= -.95879602E+02 E0= -.95880391E+02  d E =-.192168E-02  mag=    33.1340
       N       E                     dE             d eps       ncg     rms          rms(c)
DAV:   1    -0.958741300898E+02    0.55116E-02   -0.94996E-01  1168   0.283E+00    0.540E-01
RMM:   2    -0.958801800213E+02   -0.60499E-02   -0.37984E-02  1245   0.796E-01    0.438E-01
RMM:   3    -0.958820457001E+02   -0.18657E-02   -0.10930E-02  1205   0.585E-01    0.716E-01
RMM:   4    -0.958799547843E+02    0.20909E-02   -0.25586E-03  1170   0.321E-01    0.202E-01
RMM:   5    -0.958800383663E+02   -0.83582E-04   -0.45394E-04   862   0.111E-01
  26 F= -.95880038E+02 E0= -.95880856E+02  d E =-.235773E-02  mag=    33.1274
       N       E                     dE             d eps       ncg     rms          rms(c)
DAV:   1    -0.958748483439E+02    0.51064E-02   -0.13197E+00  1168   0.307E+00    0.550E-01
RMM:   2    -0.958820957424E+02   -0.72474E-02   -0.56257E-02  1241   0.864E-01    0.336E-01
RMM:   3    -0.958828370514E+02   -0.74131E-03   -0.58008E-03  1231   0.374E-01    0.399E-01
RMM:   4    -0.958823947418E+02    0.44231E-03   -0.14225E-03  1146   0.213E-01    0.215E-01
RMM:   5    -0.958823428720E+02    0.51870E-04   -0.25230E-04   703   0.825E-02
  27 F= -.95882343E+02 E0= -.95883048E+02  d E =-.230451E-02  mag=    33.1228
       N       E                     dE             d eps       ncg     rms          rms(c)
DAV:   1    -0.958581392843E+02    0.24255E-01   -0.45500E+00  1168   0.571E+00    0.102E+00
RMM:   2    -0.958832277244E+02   -0.25088E-01   -0.19908E-01  1240   0.164E+00    0.666E-01
RMM:   3    -0.958861347720E+02   -0.29070E-02   -0.21762E-02  1238   0.711E-01    0.798E-01
RMM:   4    -0.958841794875E+02    0.19553E-02   -0.56555E-03  1197   0.426E-01    0.415E-01
RMM:   5    -0.958838900991E+02    0.28939E-03   -0.10860E-03  1105   0.165E-01    0.278E-01
RMM:   6    -0.958837911053E+02    0.98994E-04   -0.26734E-04   712   0.839E-02
  28 F= -.95883791E+02 E0= -.95884239E+02  d E =-.375274E-02  mag=    33.1231
       N       E                     dE             d eps       ncg     rms          rms(c)
DAV:   1    -0.958831656239E+02    0.72448E-03   -0.32459E-01  1177   0.147E+00    0.247E-01
RMM:   2    -0.958852529777E+02   -0.20874E-02   -0.15668E-02  1281   0.477E-01    0.422E-01
RMM:   3    -0.958848871378E+02    0.36584E-03   -0.34473E-03  1191   0.348E-01    0.309E-01
RMM:   4    -0.958847004947E+02    0.18664E-03   -0.51278E-04   926   0.132E-01    0.160E-01
RMM:   5    -0.958846678398E+02    0.32655E-04   -0.19610E-04   672   0.952E-02
  29 F= -.95884668E+02 E0= -.95885185E+02  d E =-.876734E-03  mag=    33.1183
       N       E                     dE             d eps       ncg     rms          rms(c)
DAV:   1    -0.958716726768E+02    0.13028E-01   -0.29978E+00  1168   0.432E+00    0.695E-01
RMM:   2    -0.958875587637E+02   -0.15886E-01   -0.13991E-01  1242   0.131E+00    0.526E-01
RMM:   3    -0.958900157049E+02   -0.24569E-02   -0.18544E-02  1234   0.680E-01    0.850E-01
RMM:   4    -0.958873881256E+02    0.26276E-02   -0.41360E-03  1196   0.364E-01    0.242E-01
RMM:   5    -0.958874483940E+02   -0.60268E-04   -0.48316E-04   850   0.885E-02
  30 F= -.95887448E+02 E0= -.95888174E+02  d E =-.365729E-02  mag=    33.1133
       N       E                     dE             d eps       ncg     rms          rms(c)
DAV:   1    -0.958264184775E+02    0.60970E-01   -0.12045E+01  1176   0.867E+00    0.136E+00
RMM:   2    -0.958912600680E+02   -0.64842E-01   -0.56834E-01  1240   0.269E+00    0.112E+00
RMM:   3    -0.959012935021E+02   -0.10033E-01   -0.79703E-02  1227   0.148E+00    0.180E+00
RMM:   4    -0.958894855233E+02    0.11808E-01   -0.16725E-02  1201   0.772E-01    0.513E-01
RMM:   5    -0.958896452676E+02   -0.15974E-03   -0.29456E-03  1307   0.208E-01    0.436E-01
RMM:   6    -0.958893446035E+02    0.30066E-03   -0.57317E-04   887   0.108E-01    0.414E-01
RMM:   7    -0.958890284305E+02    0.31617E-03   -0.46594E-03  1247   0.252E-01    0.418E-01
RMM:   8    -0.958890875929E+02   -0.59162E-04   -0.37699E-03  1250   0.254E-01    0.338E-01
RMM:   9    -0.958888797949E+02    0.20780E-03   -0.93886E-04  1105   0.157E-01    0.121E-01
RMM:  10    -0.958889232737E+02   -0.43479E-04   -0.15867E-04   675   0.592E-02
  31 F= -.95888923E+02 E0= -.95890057E+02  d E =-.513217E-02  mag=    33.0758
       N       E                     dE             d eps       ncg     rms          rms(c)
DAV:   1    -0.958851153198E+02    0.37645E-02   -0.69924E-01  1173   0.207E+00    0.361E-01
RMM:   2    -0.958891397244E+02   -0.40244E-02   -0.36852E-02  1247   0.665E-01    0.308E-01
RMM:   3    -0.958900754866E+02   -0.93576E-03   -0.67000E-03  1219   0.436E-01    0.528E-01
RMM:   4    -0.958890626707E+02    0.10128E-02   -0.15864E-03  1151   0.241E-01    0.124E-01
RMM:   5    -0.958891084969E+02   -0.45826E-04   -0.24269E-04   715   0.763E-02
  32 F= -.95889108E+02 E0= -.95890543E+02  d E =-.531739E-02  mag=    33.0687
       N       E                     dE             d eps       ncg     rms          rms(c)
DAV:   1    -0.958879154877E+02    0.11472E-02   -0.22788E-01  1171   0.119E+00    0.274E-01
RMM:   2    -0.958896288797E+02   -0.17134E-02   -0.13177E-02  1216   0.454E-01    0.342E-01
RMM:   3    -0.958898887970E+02   -0.25992E-03   -0.39856E-03  1209   0.348E-01    0.385E-01
RMM:   4    -0.958894303132E+02    0.45848E-03   -0.79940E-04  1008   0.177E-01    0.102E-01
RMM:   5    -0.958894677430E+02   -0.37430E-04   -0.16339E-04   623   0.821E-02
  33 F= -.95889468E+02 E0= -.95890726E+02  d E =-.567664E-02  mag=    33.0651
       N       E                     dE             d eps       ncg     rms          rms(c)
DAV:   1    -0.958852598693E+02    0.41704E-02   -0.11184E+00  1168   0.272E+00    0.476E-01
RMM:   2    -0.958914077047E+02   -0.61478E-02   -0.52966E-02  1242   0.839E-01    0.306E-01
RMM:   3    -0.958924046517E+02   -0.99695E-03   -0.84190E-03  1219   0.488E-01    0.430E-01
RMM:   4    -0.958914692692E+02    0.93538E-03   -0.16055E-03  1172   0.244E-01    0.132E-01
RMM:   5    -0.958914475658E+02    0.21703E-04   -0.23500E-04   702   0.707E-02
  34 F= -.95891448E+02 E0= -.95892627E+02  d E =-.197982E-02  mag=    33.0649
       N       E                     dE             d eps       ncg     rms          rms(c)
DAV:   1    -0.958738489179E+02    0.17620E-01   -0.36787E+00  1168   0.493E+00    0.796E-01
RMM:   2    -0.958939804141E+02   -0.20131E-01   -0.16597E-01  1245   0.151E+00    0.603E-01
RMM:   3    -0.958970180879E+02   -0.30377E-02   -0.23744E-02  1209   0.844E-01    0.909E-01
RMM:   4    -0.958936446009E+02    0.33735E-02   -0.44351E-03  1198   0.401E-01    0.289E-01
RMM:   5    -0.958935328732E+02    0.11173E-03   -0.80750E-04  1019   0.128E-01    0.231E-01
RMM:   6    -0.958934471727E+02    0.85700E-04   -0.14220E-04   656   0.504E-02
  35 F= -.95893447E+02 E0= -.95894539E+02  d E =-.397943E-02  mag=    33.0664
       N       E                     dE             d eps       ncg     rms          rms(c)
DAV:   1    -0.958137762065E+02    0.79757E-01   -0.14584E+01  1176   0.986E+00    0.166E+00
RMM:   2    -0.958998825212E+02   -0.86106E-01   -0.70152E-01  1239   0.323E+00    0.161E+00
RMM:   3    -0.959159873499E+02   -0.16105E-01   -0.14602E-01  1209   0.214E+00    0.250E+00
RMM:   4    -0.958938895544E+02    0.22098E-01   -0.28840E-02  1206   0.987E-01    0.789E-01
RMM:   5    -0.958924501354E+02    0.14394E-02   -0.70835E-03  1191   0.465E-01    0.457E-01
RMM:   6    -0.958920569304E+02    0.39320E-03   -0.17114E-03  1174   0.120E-01    0.389E-01
RMM:   7    -0.958919041634E+02    0.15277E-03   -0.18639E-03  1209   0.191E-01    0.421E-01
RMM:   8    -0.958918405297E+02    0.63634E-04   -0.31996E-03  1224   0.261E-01    0.390E-01
RMM:   9    -0.958916573141E+02    0.18322E-03   -0.24791E-03  1246   0.224E-01    0.261E-01
RMM:  10    -0.958914714502E+02    0.18586E-03   -0.60009E-04   991   0.135E-01    0.967E-02
RMM:  11    -0.958915250444E+02   -0.53594E-04   -0.24446E-04   737   0.637E-02
  36 F= -.95891525E+02 E0= -.95892588E+02  d E =-.205730E-02  mag=    33.0693
       N       E                     dE             d eps       ncg     rms          rms(c)
DAV:   1    -0.958705436760E+02    0.20928E-01   -0.42994E+00  1168   0.532E+00    0.926E-01
RMM:   2    -0.958947109208E+02   -0.24167E-01   -0.19721E-01  1240   0.164E+00    0.721E-01
RMM:   3    -0.958988424519E+02   -0.41315E-02   -0.37112E-02  1197   0.105E+00    0.104E+00
RMM:   4    -0.958939837532E+02    0.48587E-02   -0.76384E-03  1192   0.548E-01    0.350E-01
RMM:   5    -0.958937987232E+02    0.18503E-03   -0.14398E-03  1155   0.189E-01    0.219E-01
RMM:   6    -0.958937080160E+02    0.90707E-04   -0.18931E-04   659   0.603E-02
  37 F= -.95893708E+02 E0= -.95894819E+02  d E =-.424027E-02  mag=    33.0698
       N       E                     dE             d eps       ncg     rms          rms(c)
DAV:   1    -0.958911208080E+02    0.26779E-02   -0.52711E-01  1168   0.188E+00    0.270E-01
RMM:   2    -0.958944484405E+02   -0.33276E-02   -0.23316E-02  1264   0.592E-01    0.466E-01
RMM:   3    -0.958939588137E+02    0.48963E-03   -0.45994E-03  1181   0.403E-01    0.383E-01
RMM:   4    -0.958936089498E+02    0.34986E-03   -0.87104E-04  1052   0.160E-01    0.184E-01
RMM:   5    -0.958935567651E+02    0.52185E-04   -0.16185E-04   643   0.813E-02
  38 F= -.95893557E+02 E0= -.95894669E+02  d E =-.408902E-02  mag=    33.0680
       N       E                     dE             d eps       ncg     rms          rms(c)
DAV:   1    -0.958864209400E+02    0.71880E-02   -0.14063E+00  1168   0.321E+00    0.662E-01
RMM:   2    -0.958944266524E+02   -0.80057E-02   -0.63718E-02  1231   0.920E-01    0.368E-01
RMM:   3    -0.958965334675E+02   -0.21068E-02   -0.10317E-02  1225   0.536E-01    0.691E-01
RMM:   4    -0.958946367742E+02    0.18967E-02   -0.29244E-03  1185   0.324E-01    0.177E-01
RMM:   5    -0.958948503111E+02   -0.21354E-03   -0.56217E-04   962   0.123E-01    0.141E-01
RMM:   6    -0.958947884297E+02    0.61881E-04   -0.11195E-04   619   0.659E-02
  39 F= -.95894788E+02 E0= -.95895513E+02  d E =-.123166E-02  mag=    33.0725
       N       E                     dE             d eps       ncg     rms          rms(c)
DAV:   1    -0.958917133289E+02    0.31370E-02   -0.53448E-01  1168   0.199E+00    0.364E-01
RMM:   2    -0.958951452222E+02   -0.34319E-02   -0.23064E-02  1241   0.583E-01    0.446E-01
RMM:   3    -0.958959473312E+02   -0.80211E-03   -0.66507E-03  1190   0.466E-01    0.611E-01
RMM:   4    -0.958946097386E+02    0.13376E-02   -0.15027E-03  1145   0.245E-01    0.154E-01
RMM:   5    -0.958947402827E+02   -0.13054E-03   -0.23380E-04   694   0.902E-02    0.106E-01
RMM:   6    -0.958947237519E+02    0.16531E-04   -0.67398E-05   608   0.511E-02
  40 F= -.95894724E+02 E0= -.95895258E+02  d E =-.116699E-02  mag=    33.0768
       N       E                     dE             d eps       ncg     rms          rms(c)
DAV:   1    -0.958866405564E+02    0.80997E-02   -0.14775E+00  1168   0.343E+00    0.654E-01
RMM:   2    -0.958954630287E+02   -0.88225E-02   -0.60123E-02  1225   0.988E-01    0.498E-01
RMM:   3    -0.958984225806E+02   -0.29596E-02   -0.14434E-02  1211   0.650E-01    0.871E-01
RMM:   4    -0.958954581630E+02    0.29644E-02   -0.38040E-03  1182   0.380E-01    0.214E-01
RMM:   5    -0.958956347069E+02   -0.17654E-03   -0.63001E-04   983   0.123E-01    0.151E-01
RMM:   6    -0.958955899661E+02    0.44741E-04   -0.12685E-04   636   0.643E-02
  41 F= -.95895590E+02 E0= -.95896237E+02  d E =-.866214E-03  mag=    33.0759
       N       E                     dE             d eps       ncg     rms          rms(c)
DAV:   1    -0.958495065007E+02    0.46128E-01   -0.75220E+00  1168   0.776E+00    0.149E+00
RMM:   2    -0.958970039493E+02   -0.47497E-01   -0.32277E-01  1231   0.235E+00    0.127E+00
RMM:   3    -0.959099257276E+02   -0.12922E-01   -0.89997E-02  1214   0.165E+00    0.190E+00
RMM:   4    -0.958954596615E+02    0.14466E-01   -0.20320E-02  1190   0.898E-01    0.562E-01
RMM:   5    -0.958955023803E+02   -0.42719E-04   -0.37855E-03  1199   0.309E-01    0.345E-01
RMM:   6    -0.958952816382E+02    0.22074E-03   -0.79929E-04   952   0.106E-01    0.293E-01
RMM:   7    -0.958952701545E+02    0.11484E-04   -0.91300E-04  1108   0.156E-01
  42 F= -.95895270E+02 E0= -.95896492E+02  d E =-.546403E-03  mag=    33.0675
       N       E                     dE             d eps       ncg     rms          rms(c)
DAV:   1    -0.958838659544E+02    0.11416E-01   -0.20337E+00  1168   0.398E+00    0.794E-01
RMM:   2    -0.959035442362E+02   -0.19678E-01   -0.10944E-01  1236   0.143E+00    0.149E+00
RMM:   3    -0.958977292701E+02    0.58150E-02   -0.37319E-02  1204   0.112E+00    0.920E-01
RMM:   4    -0.958962259222E+02    0.15033E-02   -0.71172E-03  1221   0.469E-01    0.428E-01
RMM:   5    -0.958955495994E+02    0.67632E-03   -0.16002E-03  1145   0.237E-01    0.208E-01
RMM:   6    -0.958955416093E+02    0.79901E-05   -0.50388E-04   782   0.784E-02
  43 F= -.95895542E+02 E0= -.95896706E+02  d E =-.271455E-03  mag=    33.0653
       N       E                     dE             d eps       ncg     rms          rms(c)
DAV:   1    -0.958955166922E+02    0.32907E-04   -0.29270E-04  1066   0.200E-01    0.157E-01
RMM:   2    -0.958956427626E+02   -0.12607E-03   -0.78836E-04  1029   0.138E-01    0.233E-01
RMM:   3    -0.958955559680E+02    0.86795E-04   -0.73463E-04  1050   0.167E-01    0.174E-01
RMM:   4    -0.958956569454E+02   -0.10098E-03   -0.67774E-04   965   0.134E-01    0.176E-01
RMM:   5    -0.958955250231E+02    0.13192E-03   -0.35747E-04   765   0.123E-01    0.484E-02
RMM:   6    -0.958955519871E+02   -0.26964E-04   -0.13378E-04   617   0.525E-02
  44 F= -.95895552E+02 E0= -.95896759E+02  d E =-.281833E-03  mag=    33.0648
       N       E                     dE             d eps       ncg     rms          rms(c)
DAV:   1    -0.958938081061E+02    0.17169E-02   -0.29977E-01  1168   0.179E+00    0.407E-01
RMM:   2    -0.958961683054E+02   -0.23602E-02   -0.95341E-03  1204   0.518E-01    0.329E-01
RMM:   3    -0.958969604772E+02   -0.79217E-03   -0.60887E-03  1185   0.425E-01    0.397E-01
RMM:   4    -0.958960948019E+02    0.86568E-03   -0.12518E-03  1120   0.233E-01    0.824E-02
RMM:   5    -0.958960969703E+02   -0.21684E-05   -0.17773E-04   649   0.715E-02
  45 F= -.95896097E+02 E0= -.95897140E+02  d E =-.544983E-03  mag=    33.0681
       N       E                     dE             d eps       ncg     rms          rms(c)
DAV:   1    -0.958959780195E+02    0.11678E-03   -0.13489E-02  1174   0.404E-01    0.891E-02
RMM:   2    -0.958960770126E+02   -0.98993E-04   -0.42205E-04   875   0.117E-01    0.944E-02
RMM:   3    -0.958961012865E+02   -0.24274E-04   -0.30662E-04   739   0.116E-01    0.107E-01
RMM:   4    -0.958960599727E+02    0.41314E-04   -0.84579E-05   589   0.718E-02
  46 F= -.95896060E+02 E0= -.95897041E+02  d E =-.507986E-03  mag=    33.0711
       N       E                     dE             d eps       ncg     rms          rms(c)
DAV:   1    -0.958951079575E+02    0.99333E-03   -0.15325E-01  1168   0.126E+00    0.303E-01
RMM:   2    -0.958963042943E+02   -0.11963E-02   -0.25602E-03  1187   0.263E-01    0.235E-01
RMM:   3    -0.958969099242E+02   -0.60563E-03   -0.23587E-03  1158   0.271E-01    0.373E-01
RMM:   4    -0.958963630558E+02    0.54687E-03   -0.63192E-04  1014   0.168E-01    0.690E-02
RMM:   5    -0.958963784225E+02   -0.15367E-04   -0.10578E-04   608   0.571E-02
  47 F= -.95896378E+02 E0= -.95897438E+02  d E =-.318450E-03  mag=    33.0723
       N       E                     dE             d eps       ncg     rms          rms(c)
DAV:   1    -0.958952846203E+02    0.10784E-02   -0.14952E-01  1170   0.124E+00    0.296E-01
RMM:   2    -0.958963495339E+02   -0.10649E-02   -0.21574E-03  1163   0.254E-01    0.186E-01
RMM:   3    -0.958968294247E+02   -0.47989E-03   -0.12331E-03  1128   0.199E-01    0.298E-01
RMM:   4    -0.958964773586E+02    0.35207E-03   -0.40187E-04   882   0.135E-01    0.562E-02
RMM:   5    -0.958965085478E+02   -0.31189E-04   -0.10494E-04   610   0.531E-02
  48 F= -.95896509E+02 E0= -.95897645E+02  d E =-.448575E-03  mag=    33.0714
       N       E                     dE             d eps       ncg     rms          rms(c)
DAV:   1    -0.958956290964E+02    0.84826E-03   -0.12238E-01  1170   0.114E+00    0.268E-01
RMM:   2    -0.958965279249E+02   -0.89883E-03   -0.24792E-03  1167   0.261E-01    0.197E-01
RMM:   3    -0.958970062850E+02   -0.47836E-03   -0.15570E-03  1152   0.215E-01    0.340E-01
RMM:   4    -0.958965540648E+02    0.45222E-03   -0.53648E-04   908   0.147E-01    0.731E-02
RMM:   5    -0.958966166191E+02   -0.62554E-04   -0.10209E-04   614   0.591E-02
  49 F= -.95896617E+02 E0= -.95897627E+02  d E =-.108071E-03  mag=    33.0723
       N       E                     dE             d eps       ncg     rms          rms(c)
DAV:   1    -0.958966077827E+02   -0.53718E-04   -0.49932E-04  1146   0.124E-01    0.395E-02
RMM:   2    -0.958966649928E+02   -0.57210E-04   -0.13631E-04   614   0.751E-02    0.132E-01
RMM:   3    -0.958966027443E+02    0.62248E-04   -0.10051E-04   590   0.762E-02    0.272E-02
RMM:   4    -0.958966137052E+02   -0.10961E-04   -0.16231E-05   579   0.243E-02
  50 F= -.95896614E+02 E0= -.95897592E+02  d E =-.105157E-03  mag=    33.0738
       N       E                     dE             d eps       ncg     rms          rms(c)
DAV:   1    -0.958965977355E+02    0.50088E-05   -0.18201E-03  1173   0.156E-01    0.391E-02
RMM:   2    -0.958966349607E+02   -0.37225E-04   -0.69983E-05   593   0.485E-02    0.848E-02
RMM:   3    -0.958966195299E+02    0.15431E-04   -0.87653E-05   603   0.654E-02    0.497E-02
RMM:   4    -0.958966181755E+02    0.13544E-05   -0.14889E-05   571   0.292E-02
  51 F= -.95896618E+02 E0= -.95897605E+02  d E =-.109628E-03  mag=    33.0747
       N       E                     dE             d eps       ncg     rms          rms(c)
DAV:   1    -0.958966114166E+02    0.81132E-05   -0.83637E-04  1167   0.102E-01    0.228E-02
RMM:   2    -0.958966193637E+02   -0.79471E-05   -0.17863E-05   585   0.230E-02    0.233E-02
RMM:   3    -0.958966239809E+02   -0.46172E-05   -0.19553E-05   585   0.297E-02    0.388E-02
RMM:   4    -0.958966191323E+02    0.48485E-05   -0.84317E-06   566   0.225E-02
  52 F= -.95896619E+02 E0= -.95897608E+02  d E =-.110585E-03  mag=    33.0752
       N       E                     dE             d eps       ncg     rms          rms(c)
DAV:   1    -0.958966188126E+02    0.51683E-05   -0.24711E-04  1007   0.548E-02    0.129E-02
RMM:   2    -0.958966223073E+02   -0.34948E-05   -0.12342E-05   584   0.216E-02    0.202E-02
RMM:   3    -0.958966222189E+02    0.88400E-07   -0.10369E-05   578   0.239E-02    0.139E-02
RMM:   4    -0.958966218559E+02    0.36300E-06   -0.19817E-06   500   0.112E-02
  53 F= -.95896622E+02 E0= -.95897617E+02  d E =-.113308E-03  mag=    33.0755
       N       E                     dE             d eps       ncg     rms          rms(c)
DAV:   1    -0.958966207524E+02    0.14665E-05   -0.56620E-05   598   0.277E-02    0.856E-03
RMM:   2    -0.958966224982E+02   -0.17458E-05   -0.83188E-06   557   0.215E-02    0.189E-02
RMM:   3    -0.958966219537E+02    0.54449E-06   -0.43669E-06   542   0.149E-02    0.112E-02
RMM:   4    -0.958966218658E+02    0.87928E-07   -0.80470E-07   254   0.849E-03
  54 F= -.95896622E+02 E0= -.95897616E+02  d E =-.113318E-03  mag=    33.0757
       N       E                     dE             d eps       ncg     rms          rms(c)
DAV:   1    -0.958966215345E+02    0.41922E-06   -0.25126E-05   587   0.206E-02    0.793E-03
RMM:   2    -0.958966234198E+02   -0.18853E-05   -0.81192E-06   552   0.215E-02    0.211E-02
RMM:   3    -0.958966221562E+02    0.12637E-05   -0.37995E-06   526   0.147E-02    0.812E-03
RMM:   4    -0.958966221902E+02   -0.34062E-07   -0.21656E-07   109   0.645E-03
  55 F= -.95896622E+02 E0= -.95897616E+02  d E =-.113642E-03  mag=    33.0758
       N       E                     dE             d eps       ncg     rms          rms(c)
DAV:   1    -0.958966219980E+02    0.15813E-06   -0.52649E-06   587   0.123E-02    0.473E-03
RMM:   2    -0.958966228447E+02   -0.84671E-06   -0.32088E-06   474   0.132E-02    0.155E-02
RMM:   3    -0.958966220167E+02    0.82802E-06   -0.11289E-06   328   0.868E-03    0.429E-03
RMM:   4    -0.958966221738E+02   -0.15708E-06   -0.28384E-09    16   0.488E-03
  56 F= -.95896622E+02 E0= -.95897616E+02  d E =-.113626E-03  mag=    33.0758
       N       E                     dE             d eps       ncg     rms          rms(c)
DAV:   1    -0.958966221979E+02   -0.18115E-06   -0.17741E-06   587   0.733E-03    0.274E-03
RMM:   2    -0.958966223754E+02   -0.17754E-06   -0.28977E-07   158   0.644E-03    0.635E-03
RMM:   3    -0.958966222271E+02    0.14833E-06   -0.10386E-08    28   0.410E-03    0.262E-03
RMM:   4    -0.958966222483E+02   -0.21218E-07   -0.12666E-10    12   0.408E-03
  57 F= -.95896622E+02 E0= -.95897616E+02  d E =-.113701E-03  mag=    33.0759
       N       E                     dE             d eps       ncg     rms          rms(c)
DAV:   1    -0.958966222573E+02   -0.30229E-07   -0.43886E-07   587   0.505E-03    0.163E-03
RMM:   2    -0.958966223456E+02   -0.88290E-07   -0.67542E-08    43   0.393E-03    0.531E-03
RMM:   3    -0.958966222207E+02    0.12490E-06   -0.27606E-09    14   0.226E-03    0.919E-04
RMM:   4    -0.958966222579E+02   -0.37238E-07   -0.12552E-10    12   0.220E-03
  58 F= -.95896622E+02 E0= -.95897616E+02  d E =-.113710E-03  mag=    33.0759
       N       E                     dE             d eps       ncg     rms          rms(c)
DAV:   1    -0.958966222778E+02   -0.57086E-07   -0.12161E-07   587   0.293E-03    0.863E-04
RMM:   2    -0.958966222919E+02   -0.14124E-07   -0.12567E-10    11   0.190E-03    0.184E-03
RMM:   3    -0.958966222785E+02    0.13385E-07   -0.12555E-10    10   0.112E-03    0.617E-04
RMM:   4    -0.958966222796E+02   -0.11187E-08   -0.12545E-10    10   0.125E-03
  59 F= -.95896622E+02 E0= -.95897616E+02  d E =-.113732E-03  mag=    33.0759
       N       E                     dE             d eps       ncg     rms          rms(c)
DAV:   1    -0.958963475738E+02    0.27470E-03   -0.40520E-02  1170   0.660E-01    0.146E-01
RMM:   2    -0.958966310858E+02   -0.28351E-03   -0.90949E-04  1062   0.158E-01    0.110E-01
RMM:   3    -0.958967668032E+02   -0.13572E-03   -0.55584E-04   931   0.141E-01    0.174E-01
RMM:   4    -0.958966395232E+02    0.12728E-03   -0.16696E-04   631   0.965E-02    0.438E-02
RMM:   5    -0.958966483813E+02   -0.88581E-05   -0.31586E-05   588   0.332E-02
  60 F= -.95896648E+02 E0= -.95897710E+02  d E =-.261017E-04  mag=    33.0746
