 vasp.5.3.3 18Dez12 (build Sep  7 2015 22:32:56) complex                        
  
 executed on             LinuxIFC date 2022.12.08  17:35:00
 running on    1 total cores
 distrk:  each k-point on    1 cores,    1 groups
 distr:  one band on NCORES_PER_BAND=   1 cores,    1 groups


--------------------------------------------------------------------------------------------------------


 INCAR:
 POTCAR:    PAW_PBE Fe 06Sep2000                  
 POTCAR:    PAW_PBE Cl 06Sep2000                  
 POTCAR:    PAW_PBE Fe 06Sep2000                  
   VRHFIN =Fe:  d7 s1                                                           
   LEXCH  = PE                                                                  
   EATOM  =   594.3153 eV,   43.6809 Ry                                         
                                                                                
   TITEL  = PAW_PBE Fe 06Sep2000                                                
   LULTRA =        F    use ultrasoft PP ?                                      
   IUNSCR =        1    unscreen: 0-lin 1-nonlin 2-no                           
   RPACOR =    2.000    partial core radius                                     
   POMASS =   55.847; ZVAL   =    8.000    mass and valenz                      
   RCORE  =    2.300    outmost cutoff radius                                   
   RWIGS  =    2.460; RWIGS  =    1.302    wigner-seitz radius (au A)           
   ENMAX  =  267.882; ENMIN  =  200.911 eV                                      
   RCLOC  =    1.701    cutoff for local pot                                    
   LCOR   =        T    correct aug charges                                     
   LPAW   =        T    paw PP                                                  
   EAUG   =  511.368                                                            
   DEXC   =    0.000                                                            
   RMAX   =    2.356    core radius for proj-oper                               
   RAUG   =    1.300    factor for augmentation sphere                          
   RDEP   =    2.442    radius for radial grids                                 
   RDEPT  =    1.890    core radius for aug-charge                              
                                                                                
   Atomic configuration                                                         
    9 entries                                                                   
     n  l   j            E        occ.                                          
     1  0  0.50     -6993.8440   2.0000                                         
     2  0  0.50      -814.6047   2.0000                                         
     2  1  1.50      -693.3689   6.0000                                         
     3  0  0.50       -89.4732   2.0000                                         
     3  1  1.50       -55.6373   6.0000                                         
     3  2  2.50        -3.8151   7.0000                                         
     4  0  0.50        -4.2551   1.0000                                         
     4  1  1.50        -3.4015   0.0000                                         
     4  3  2.50        -1.3606   0.0000                                         
   Description                                                                  
     l       E           TYP  RCUT    TYP  RCUT                                 
     2     -3.8151135     23  2.300                                             
     2     -5.1756961     23  2.300                                             
     0     -4.2550963     23  2.300                                             
     0      7.2035603     23  2.300                                             
     1     -2.7211652     23  2.300                                             
     1     18.4316424     23  2.300                                             
  local pseudopotential read in
  partial core-charges read in
  partial kinetic energy density read in
  atomic valenz-charges read in
  non local Contribution for L=           2  read in
    real space projection operators read in
  non local Contribution for L=           2  read in
    real space projection operators read in
  non local Contribution for L=           0  read in
    real space projection operators read in
  non local Contribution for L=           0  read in
    real space projection operators read in
  non local Contribution for L=           1  read in
    real space projection operators read in
  non local Contribution for L=           1  read in
    real space projection operators read in
    PAW grid and wavefunctions read in
 
   number of l-projection  operators is LMAX  =           6
   number of lm-projection operators is LMMAX =          18
 
 POTCAR:    PAW_PBE Cl 06Sep2000                  
   VRHFIN =Cl: s2p5                                                             
   LEXCH  = PE                                                                  
   EATOM  =   409.7259 eV,   30.1140 Ry                                         
                                                                                
   TITEL  = PAW_PBE Cl 06Sep2000                                                
   LULTRA =        F    use ultrasoft PP ?                                      
   IUNSCR =        1    unscreen: 0-lin 1-nonlin 2-no                           
   RPACOR =    1.500    partial core radius                                     
   POMASS =   35.453; ZVAL   =    7.000    mass and valenz                      
   RCORE  =    1.900    outmost cutoff radius                                   
   RWIGS  =    2.100; RWIGS  =    1.111    wigner-seitz radius (au A)           
   ENMAX  =  262.472; ENMIN  =  196.854 eV                                      
   ICORE  =        2    local potential                                         
   LCOR   =        T    correct aug charges                                     
   LPAW   =        T    paw PP                                                  
   EAUG   =  356.192                                                            
   DEXC   =    0.000                                                            
   RMAX   =    1.945    core radius for proj-oper                               
   RAUG   =    1.300    factor for augmentation sphere                          
   RDEP   =    2.020    radius for radial grids                                 
   RDEPT  =    1.678    core radius for aug-charge                              
                                                                                
   Atomic configuration                                                         
    6 entries                                                                   
     n  l   j            E        occ.                                          
     1  0  0.50     -2751.1850   2.0000                                         
     2  0  0.50      -252.6861   2.0000                                         
     2  1  1.50      -191.6157   6.0000                                         
     3  0  0.50       -20.6916   2.0000                                         
     3  1  0.50        -8.5949   5.0000                                         
     3  2  1.50        -8.1635   0.0000                                         
   Description                                                                  
     l       E           TYP  RCUT    TYP  RCUT                                 
     0    -20.6915656     23  1.900                                             
     0    -22.0521482     23  1.900                                             
     1     -8.5948577     23  1.900                                             
     1     -5.3847331     23  1.900                                             
     2     -8.1634956     23  1.900                                             
  local pseudopotential read in
  partial core-charges read in
  partial kinetic energy density read in
  atomic valenz-charges read in
  non local Contribution for L=           0  read in
    real space projection operators read in
  non local Contribution for L=           0  read in
    real space projection operators read in
  non local Contribution for L=           1  read in
    real space projection operators read in
  non local Contribution for L=           1  read in
    real space projection operators read in
    PAW grid and wavefunctions read in
 
   number of l-projection  operators is LMAX  =           4
   number of lm-projection operators is LMMAX =           8
 
  PAW_PBE Fe 06Sep2000                  :
 energy of atom  1       EATOM= -594.3153
 kinetic energy error for atom=    0.0205 (will be added to EATOM!!)
  PAW_PBE Cl 06Sep2000                  :
 energy of atom  2       EATOM= -409.7259
 kinetic energy error for atom=    0.0105 (will be added to EATOM!!)
 
 
 POSCAR: header                                  
  positions in cartesian coordinates
  No initial velocities read in
 exchange correlation table for  LEXCH =        8
   RHO(1)=    0.500       N(1)  =     2000
   RHO(2)=  100.500       N(2)  =     4000
 


--------------------------------------------------------------------------------------------------------


 ion  position               nearest neighbor table
   1  0.000  0.000  0.000-   5 2.44   6 2.44   7 2.44   8 2.44   2 2.82   3 2.82   3 2.82   2 2.82
                             9 2.82
   2  0.500  0.000  0.000-   5 2.44   6 2.44   7 2.44   8 2.44   1 2.82   4 2.82   4 2.82   1 2.82
                            10 2.82
   3  0.000  0.500  0.000-   5 2.44   6 2.44   7 2.44   8 2.44   1 2.82   4 2.82   1 2.82   4 2.82
                            11 2.82
   4  0.500  0.500  0.000-   5 2.44   6 2.44   7 2.44   8 2.44   2 2.82   3 2.82   2 2.82   3 2.82
                            12 2.82
   5  0.250  0.250  0.094-   1 2.44   2 2.44   3 2.44   4 2.44   9 2.44  10 2.44  11 2.44  12 2.44
                             6 2.82   7 2.82   7 2.82   6 2.82
   6  0.750  0.250  0.094-   1 2.44   2 2.44   3 2.44   4 2.44   9 2.44  10 2.44  11 2.44  12 2.44
                             5 2.82   8 2.82   8 2.82   5 2.82
   7  0.250  0.750  0.094-   1 2.44   2 2.44   3 2.44   4 2.44   9 2.44  10 2.44  11 2.44  12 2.44
                             5 2.82   8 2.82   5 2.82   8 2.82
   8  0.750  0.750  0.094-   1 2.44   2 2.44   3 2.44   4 2.44   9 2.44  10 2.44  11 2.44  12 2.44
                             6 2.82   7 2.82   6 2.82   7 2.82
   9  0.000  0.000  0.188-   5 2.44   6 2.44   7 2.44   8 2.44  13 2.50  11 2.82  10 2.82  11 2.82
                            10 2.82   1 2.82
  10  0.500  0.000  0.188-   5 2.44   6 2.44   7 2.44   8 2.44   9 2.82  12 2.82  12 2.82   9 2.82
                             2 2.82
  11  0.000  0.500  0.188-   5 2.44   6 2.44   7 2.44   8 2.44  14 2.63  12 2.82   9 2.82   9 2.82
                            12 2.82   3 2.82
  12  0.500  0.500  0.188-   5 2.44   6 2.44   7 2.44   8 2.44  10 2.82  11 2.82  10 2.82  11 2.82
                             4 2.82
  13  0.000  0.000  0.355-  14 1.99   9 2.50
  14  0.000  0.353  0.355-  13 1.99  11 2.63
 
  LATTYP: Found a simple tetragonal cell.
 ALAT       =     5.6400000000
 C/A-ratio  =     2.6595744681
  
  Lattice vectors:
  
 A1 = (   5.6400000000,   0.0000000000,   0.0000000000)
 A2 = (   0.0000000000,   5.6400000000,   0.0000000000)
 A3 = (   0.0000000000,   0.0000000000,  15.0000000000)


Analysis of symmetry for initial positions (statically):
=====================================================================
 Subroutine PRICEL returns:
 Original cell was already a primitive cell.
 

 Routine SETGRP: Setting up the symmetry group for a 
 simple tetragonal supercell.


 Subroutine GETGRP returns: Found  2 space group operations
 (whereof  2 operations were pure point group operations)
 out of a pool of 16 trial point group operations.


The static configuration has the point symmetry C_1h.


Analysis of symmetry for dynamics (positions and initial velocities):
=====================================================================
 Subroutine PRICEL returns:
 Original cell was already a primitive cell.
 

 Routine SETGRP: Setting up the symmetry group for a 
 simple tetragonal supercell.


 Subroutine GETGRP returns: Found  2 space group operations
 (whereof  2 operations were pure point group operations)
 out of a pool of 16 trial point group operations.


The dynamic configuration has the point symmetry C_1h.


Analysis of constrained symmetry for selective dynamics:
=====================================================================
 Subroutine PRICEL returns:
 Original cell was already a primitive cell.
 

 Routine SETGRP: Setting up the symmetry group for a 
 simple tetragonal supercell.


 Subroutine GETGRP returns: Found  2 space group operations
 (whereof  2 operations were pure point group operations)
 out of a pool of 16 trial point group operations.


The constrained configuration has the point symmetry C_1h.


Analysis of magnetic symmetry:
=====================================================================

 Subroutine MAGSYM returns: Found  2 space group operations
 (whereof  2 operations were pure point group operations)
 out of a pool of  2 trial space group operations
 (whereof  2 operations were pure point group operations)
 and found also     1 'primitive' translations


The magnetic configuration has the point symmetry C_1h.


 irot  :   1
 --------------------------------------------------------------------
 isymop:   1   0   0
           0   1   0
           0   0   1

 gtrans:     0.0000000     0.0000000     0.0000000

 ptrans:     0.0000000     0.0000000     0.0000000
 rotmap:
 (   1->   1)  (   2->   2)  (   3->   3)  (   4->   4)  (   5->   5) 
 (   6->   6)  (   7->   7)  (   8->   8)  (   9->   9)  (  10->  10) 
 (  11->  11)  (  12->  12)  (  13->  13)  (  14->  14) 


 irot  :   2
 --------------------------------------------------------------------
 isymop:  -1   0   0
           0   1   0
           0   0   1

 gtrans:     0.0000000     0.0000000     0.0000000

 ptrans:     0.0000000     0.0000000     0.0000000
 rotmap:
 (   1->   1)  (   2->   2)  (   3->   3)  (   4->   4)  (   5->   6) 
 (   6->   5)  (   7->   8)  (   8->   7)  (   9->   9)  (  10->  10) 
 (  11->  11)  (  12->  12)  (  13->  13)  (  14->  14) 
 
 
 KPOINTS: K-Points                                

Automatic generation of k-mesh.
Space group operators:
 irot       det(A)        alpha          n_x          n_y          n_z        tau_x        tau_y        tau_z
    1     1.000000     0.000000     1.000000     0.000000     0.000000     0.000000     0.000000     0.000000
    2    -1.000000   180.000000     1.000000     0.000000     0.000000     0.000000     0.000000     0.000000
 
 Subroutine IBZKPT returns following result:
 ===========================================
 
 Found      4 irreducible k-points:
 
 Following reciprocal coordinates:
            Coordinates               Weight
  0.000000  0.000000  0.000000      1.000000
  0.500000  0.000000  0.000000      1.000000
  0.000000  0.500000  0.000000      1.000000
  0.500000  0.500000  0.000000      1.000000
 
 Following cartesian coordinates:
            Coordinates               Weight
  0.000000  0.000000  0.000000      1.000000
  0.088652  0.000000  0.000000      1.000000
  0.000000  0.088652  0.000000      1.000000
  0.088652  0.088652  0.000000      1.000000
 


--------------------------------------------------------------------------------------------------------




 Dimension of arrays:
   k-points           NKPTS =      4   k-points in BZ     NKDIM =      4   number of bands    NBANDS=     73
   number of dos      NEDOS =    301   number of ions     NIONS =     14
   non local maximal  LDIM  =      6   non local SUM 2l+1 LMDIM =     18
   total plane-waves  NPLWV =  54880
   max r-space proj   IRMAX =      1   max aug-charges    IRDMAX=   4296
   dimension x,y,z NGX =    28 NGY =   28 NGZ =   70
   dimension x,y,z NGXF=    56 NGYF=   56 NGZF=  140
   support grid    NGXF=    56 NGYF=   56 NGZF=  140
   ions per type =              12   2
 NGX,Y,Z   is equivalent  to a cutoff of   8.25,  8.25,  7.76 a.u.
 NGXF,Y,Z  is equivalent  to a cutoff of  16.51, 16.51, 15.52 a.u.


 I would recommend the setting:
   dimension x,y,z NGX =    26 NGY =   26 NGZ =   69
 SYSTEM =  Crystal                                 
 POSCAR =  header                                  

 Startparameter for this run:
   NWRITE =      2    write-flag & timer
   PREC   = normal    normal or accurate (medium, high low for compatibility)
   ISTART =      0    job   : 0-new  1-cont  2-samecut
   ICHARG =      2    charge: 1-file 2-atom 10-const
   ISPIN  =      2    spin polarized calculation?
   LNONCOLLINEAR =      F non collinear calculations
   LSORBIT =      F    spin-orbit coupling
   INIWAV =      1    electr: 0-lowe 1-rand  2-diag
   LASPH  =      F    aspherical Exc in radial PAW
   METAGGA=      F    non-selfconsistent MetaGGA calc.

 Electronic Relaxation 1
   ENCUT  =  350.0 eV  25.72 Ry    5.07 a.u.   8.60  8.60 22.88*2*pi/ulx,y,z
   ENINI  =  350.0     initial cutoff
   ENAUG  =  511.4 eV  augmentation charge cutoff
   NELM   =     60;   NELMIN=  4; NELMDL=-10     # of ELM steps 
   EDIFF  = 0.1E-03   stopping-criterion for ELM
   LREAL  =      F    real-space projection
   NLSPLINE    = F    spline interpolate recip. space projectors
   LCOMPAT=      F    compatible to vasp.4.4
   GGA_COMPAT  = T    GGA compatible to vasp.4.4-vasp.4.6
   LMAXPAW     = -100 max onsite density
   LMAXMIX     =    2 max onsite mixed and CHGCAR
   VOSKOWN=      0    Vosko Wilk Nusair interpolation
   ROPT   =    0.00000   0.00000
 Ionic relaxation
   EDIFFG = -.1E-01   stopping-criterion for IOM
   NSW    =    300    number of steps for IOM
   NBLOCK =      1;   KBLOCK =    300    inner block; outer block 
   IBRION =      2    ionic relax: 0-MD 1-quasi-New 2-CG
   NFREE  =      1    steps in history (QN), initial steepest desc. (CG)
   ISIF   =      2    stress and relaxation
   IWAVPR =     11    prediction:  0-non 1-charg 2-wave 3-comb
   ISYM   =      2    0-nonsym 1-usesym 2-fastsym
   LCORR  =      T    Harris-Foulkes like correction to forces

   POTIM  = 0.5000    time-step for ionic-motion
   TEIN   =    0.0    initial temperature
   TEBEG  =    0.0;   TEEND  =   0.0 temperature during run
   SMASS  =  -3.00    Nose mass-parameter (am)
   estimated Nose-frequenzy (Omega)   =  0.10E-29 period in steps =****** mass=  -0.727E-27a.u.
   SCALEE = 1.0000    scale energy and forces
   NPACO  =    256;   APACO  = 16.0  distance and # of slots for P.C.
   PSTRESS=    0.0 pullay stress

  Mass of Ions in am
   POMASS =  55.85 35.45
  Ionic Valenz
   ZVAL   =   8.00  7.00
  Atomic Wigner-Seitz radii
   RWIGS  =  -1.00 -1.00
  virtual crystal weights 
   VCA    =   1.00  1.00
   NELECT =     110.0000    total number of electrons
   NUPDOWN=      -1.0000    fix difference up-down

 DOS related values:
   EMIN   =  10.00;   EMAX   =-10.00  energy-range for DOS
   EFERMI =   0.00
   ISMEAR =     2;   SIGMA  =   0.10  broadening in eV -4-tet -1-fermi 0-gaus

 Electronic relaxation 2 (details)
   IALGO  =     68    algorithm
   LDIAG  =      T    sub-space diagonalisation (order eigenvalues)
   LSUBROT=      T    optimize rotation matrix (better conditioning)
   TURBO    =      0    0=normal 1=particle mesh
   IRESTART =      0    0=no restart 2=restart with 2 vectors
   NREBOOT  =      0    no. of reboots
   NMIN     =      0    reboot dimension
   EREF     =   0.00    reference energy to select bands
   IMIX   =      4    mixing-type and parameters
     AMIX     =   0.40;   BMIX     =  1.00
     AMIX_MAG =   1.60;   BMIX_MAG =  1.00
     AMIN     =   0.10
     WC   =   100.;   INIMIX=   1;  MIXPRE=   1;  MAXMIX= -45

 Intra band minimization:
   WEIMIN = 0.0010     energy-eigenvalue tresh-hold
   EBREAK =  0.34E-06  absolut break condition
   DEPER  =   0.30     relativ break condition  

   TIME   =   0.40     timestep for ELM

  volume/ion in A,a.u.               =      34.08       229.99
  Fermi-wavevector in a.u.,A,eV,Ry     =   1.003820  1.896945 13.709977  1.007655
  Thomas-Fermi vector in A             =   2.136396
 
 Write flags
   LWAVE  =      F    write WAVECAR
   LCHARG =      F    write CHGCAR
   LVTOT  =      F    write LOCPOT, total local potential
   LVHAR  =      F    write LOCPOT, Hartree potential only
   LELF   =      F    write electronic localiz. function (ELF)
   LORBIT =      0    0 simple, 1 ext, 2 COOP (PROOUT)


 Dipole corrections
   LMONO  =      F    monopole corrections only (constant potential shift)
   LDIPOL =      F    correct potential (dipole corrections)
   IDIPOL =      0    1-x, 2-y, 3-z, 4-all directions 
   EPSILON=  1.0000000 bulk dielectric constant

 Exchange correlation treatment:
   GGA     =    --    GGA type
   LEXCH   =     8    internal setting for exchange type
   VOSKOWN=      0    Vosko Wilk Nusair interpolation
   LHFCALC =     F    Hartree Fock is set to
   LHFONE  =     F    Hartree Fock one center treatment
   AEXX    =    0.0000 exact exchange contribution

 Linear response parameters
   LEPSILON=     F    determine dielectric tensor
   LRPA    =     F    only Hartree local field effects (RPA)
   LNABLA  =     F    use nabla operator in PAW spheres
   LVEL    =     F    velocity operator in full k-point grid
   LINTERFAST=   F  fast interpolation
   KINTER  =     0    interpolate to denser k-point grid
   CSHIFT  =0.1000    complex shift for real part using Kramers Kronig
   OMEGAMAX=  -1.0    maximum frequency
   DEG_THRESHOLD= 0.2000000E-02 threshold for treating states as degnerate
   RTIME   =    0.100 relaxation time in fs

 Orbital magnetization related:
   ORBITALMAG=     F  switch on orbital magnetization
   LCHIMAG   =     F  perturbation theory with respect to B field
   DQ        =  0.001000  dq finite difference perturbation B field



--------------------------------------------------------------------------------------------------------


 conjugate gradient relaxation of ions
   using selective dynamics as specified on POSCAR
   WARNING: If single coordinates had been selected the selection of coordinates
            is made according to the corresponding   d i r e c t   coordinates!
            Don't support selection of single cartesian coordinates -- sorry ...
  !
 charge density and potential will be updated during run
 spin polarized calculation
 RMM-DIIS sequential band-by-band and
  variant of blocked Davidson during initial phase
 perform sub-space diagonalisation
    before iterative eigenvector-optimisation
 modified Broyden-mixing scheme, WC =      100.0
 initial mixing is a Kerker type mixing with AMIX =  0.4000 and BMIX =      1.0000
 Hartree-type preconditioning will be used
 using additional bands           18
 reciprocal scheme for non local part
 use partial core corrections
 calculate Harris-corrections to forces 
   (improved forces if not selfconsistent)
 use gradient corrections 
 use of overlap-Matrix (Vanderbilt PP)
 Methfessel and Paxton  Order N= 2 SIGMA  =   0.10


--------------------------------------------------------------------------------------------------------


  energy-cutoff  :      350.00
  volume of cell :      477.14
      direct lattice vectors                 reciprocal lattice vectors
     5.640000000  0.000000000  0.000000000     0.177304965  0.000000000  0.000000000
     0.000000000  5.640000000  0.000000000     0.000000000  0.177304965  0.000000000
     0.000000000  0.000000000 15.000000000     0.000000000  0.000000000  0.066666667

  length of vectors
     5.640000000  5.640000000 15.000000000     0.177304965  0.177304965  0.066666667


 
 k-points in units of 2pi/SCALE and weight: K-Points                                
   0.00000000  0.00000000  0.00000000       0.250
   0.08865248  0.00000000  0.00000000       0.250
   0.00000000  0.08865248  0.00000000       0.250
   0.08865248  0.08865248  0.00000000       0.250
 
 k-points in reciprocal lattice and weights: K-Points                                
   0.00000000  0.00000000  0.00000000       0.250
   0.50000000  0.00000000  0.00000000       0.250
   0.00000000  0.50000000  0.00000000       0.250
   0.50000000  0.50000000  0.00000000       0.250
 
 position of ions in fractional coordinates (direct lattice) 
   0.00000000  0.00000000  0.00000000
   0.50000000  0.00000000  0.00000000
   0.00000000  0.50000000  0.00000000
   0.50000000  0.50000000  0.00000000
   0.25000000  0.25000000  0.09400000
   0.75000000  0.25000000  0.09400000
   0.25000000  0.75000000  0.09400000
   0.75000000  0.75000000  0.09400000
   0.00000000  0.00000000  0.18800000
   0.50000000  0.00000000  0.18800000
   0.00000000  0.50000000  0.18800000
   0.50000000  0.50000000  0.18800000
   0.00000000  0.00000000  0.35466667
   0.00000000  0.35283688  0.35466667
 
 position of ions in cartesian coordinates  (Angst):
   0.00000000  0.00000000  0.00000000
   2.82000000  0.00000000  0.00000000
   0.00000000  2.82000000  0.00000000
   2.82000000  2.82000000  0.00000000
   1.41000000  1.41000000  1.41000000
   4.23000000  1.41000000  1.41000000
   1.41000000  4.23000000  1.41000000
   4.23000000  4.23000000  1.41000000
   0.00000000  0.00000000  2.82000000
   2.82000000  0.00000000  2.82000000
   0.00000000  2.82000000  2.82000000
   2.82000000  2.82000000  2.82000000
   0.00000000  0.00000000  5.32000000
   0.00000000  1.99000000  5.32000000
 


--------------------------------------------------------------------------------------------------------


 k-point  1 :   0.0000 0.0000 0.0000  plane waves:    7109
 k-point  2 :   0.5000 0.0000 0.0000  plane waves:    7102
 k-point  3 :   0.0000 0.5000 0.0000  plane waves:    7102
 k-point  4 :   0.5000 0.5000 0.0000  plane waves:    7080

 maximum and minimum number of plane-waves per node :      7109     7080

 maximum number of plane-waves:      7109
 maximum index in each direction: 
   IXMAX=    8   IYMAX=    8   IZMAX=   22
   IXMIN=   -9   IYMIN=   -9   IZMIN=  -22

 WARNING: aliasing errors must be expected set NGX to  36 to avoid them
 WARNING: aliasing errors must be expected set NGY to  36 to avoid them
 WARNING: aliasing errors must be expected set NGZ to  90 to avoid them
 aliasing errors are usually negligible using standard VASP settings
 and one can safely disregard these warnings

 serial   3D FFT for wavefunctions
 parallel 3D FFT for charge:
    minimum data exchange during FFTs selected (reduces bandwidth)


 total amount of memory used by VASP on root node   163898. kBytes
========================================================================

   base      :      30000. kBytes
   nonl-proj :       9781. kBytes
   fftplans  :      15148. kBytes
   grid      :      39940. kBytes
   one-center:        435. kBytes
   wavefun   :      68594. kBytes
 
 Broyden mixing: mesh for mixing (old mesh)
   NGX = 17   NGY = 17   NGZ = 45
  (NGX  = 56   NGY  = 56   NGZ  =140)
  gives a total of  13005 points

 initial charge density was supplied:
 charge density of overlapping atoms calculated
 number of electron     110.0000000 magnetization      14.0000000
 keeping initial charge density in first step


--------------------------------------------------------------------------------------------------------


 Maximum index for augmentation-charges         3963 (set IRDMAX)


--------------------------------------------------------------------------------------------------------


 First call to EWALD:  gamma=   0.227
 Maximum number of real-space cells 4x 4x 2
 Maximum number of reciprocal cells 2x 2x 5

 FEWALD executed in parallel
    FEWALD:  cpu time    0.00: real time    0.00


----------------------------------------- Iteration    1(   1)  ---------------------------------------


    POTLOK:  cpu time    0.83: real time    0.83
    SETDIJ:  cpu time    0.13: real time    0.13
     EDDAV:  cpu time   22.64: real time   22.69
       DOS:  cpu time    0.00: real time    0.00
    --------------------------------------------
      LOOP:  cpu time   23.61: real time   23.65

 eigenvalue-minimisations  :  1168
 total energy-change (2. order) : 0.8113261E+03  (-0.3511310E+04)
 number of electron     110.0000000 magnetization      14.0000000
 augmentation part      110.0000000 magnetization      14.0000000

 Free energy of the ion-electron system (eV)
  ---------------------------------------------------
  alpha Z        PSCENC =       252.91199290
  Ewald energy   TEWEN  =      9621.20448307
  -1/2 Hartree   DENC   =    -17546.27633317
  -exchange  EXHF       =         0.00000000
  -V(xc)+E(xc)   XCENC  =        81.67945195
  PAW double counting   =      7307.10104293    -7399.77233888
  entropy T*S    EENTRO =         0.00127556
  eigenvalues    EBANDS =       543.50775758
  atomic energy  EATOM  =      7950.96879731
  ---------------------------------------------------
  free energy    TOTEN  =       811.32612923 eV

  energy without entropy =      811.32485368  energy(sigma->0) =      811.32581034


--------------------------------------------------------------------------------------------------------




----------------------------------------- Iteration    1(   2)  ---------------------------------------


     EDDAV:  cpu time   23.06: real time   23.09
       DOS:  cpu time    0.00: real time    0.00
    --------------------------------------------
      LOOP:  cpu time   23.06: real time   23.10

 eigenvalue-minimisations  :  1216
 total energy-change (2. order) :-0.8132858E+03  (-0.7742130E+03)
 number of electron     110.0000000 magnetization      14.0000000
 augmentation part      110.0000000 magnetization      14.0000000

 Free energy of the ion-electron system (eV)
  ---------------------------------------------------
  alpha Z        PSCENC =       252.91199290
  Ewald energy   TEWEN  =      9621.20448307
  -1/2 Hartree   DENC   =    -17546.27633317
  -exchange  EXHF       =         0.00000000
  -V(xc)+E(xc)   XCENC  =        81.67945195
  PAW double counting   =      7307.10104293    -7399.77233888
  entropy T*S    EENTRO =         0.00115965
  eigenvalues    EBANDS =      -269.77791310
  atomic energy  EATOM  =      7950.96879731
  ---------------------------------------------------
  free energy    TOTEN  =        -1.95965735 eV

  energy without entropy =       -1.96081700  energy(sigma->0) =       -1.95994726


--------------------------------------------------------------------------------------------------------




----------------------------------------- Iteration    1(   3)  ---------------------------------------


     EDDAV:  cpu time   34.13: real time   34.18
       DOS:  cpu time    0.00: real time    0.01
    --------------------------------------------
      LOOP:  cpu time   34.14: real time   34.18

 eigenvalue-minimisations  :  1896
 total energy-change (2. order) :-0.8864940E+02  (-0.7941973E+02)
 number of electron     110.0000000 magnetization      14.0000000
 augmentation part      110.0000000 magnetization      14.0000000

 Free energy of the ion-electron system (eV)
  ---------------------------------------------------
  alpha Z        PSCENC =       252.91199290
  Ewald energy   TEWEN  =      9621.20448307
  -1/2 Hartree   DENC   =    -17546.27633317
  -exchange  EXHF       =         0.00000000
  -V(xc)+E(xc)   XCENC  =        81.67945195
  PAW double counting   =      7307.10104293    -7399.77233888
  entropy T*S    EENTRO =         0.01151408
  eigenvalues    EBANDS =      -358.43767070
  atomic energy  EATOM  =      7950.96879731
  ---------------------------------------------------
  free energy    TOTEN  =       -90.60906052 eV

  energy without entropy =      -90.62057460  energy(sigma->0) =      -90.61193904


--------------------------------------------------------------------------------------------------------




----------------------------------------- Iteration    1(   4)  ---------------------------------------


     EDDAV:  cpu time   35.38: real time   35.44
       DOS:  cpu time    0.00: real time    0.00
    --------------------------------------------
      LOOP:  cpu time   35.39: real time   35.45

 eigenvalue-minimisations  :  1846
 total energy-change (2. order) :-0.1059646E+02  (-0.9784999E+01)
 number of electron     110.0000000 magnetization      14.0000000
 augmentation part      110.0000000 magnetization      14.0000000

 Free energy of the ion-electron system (eV)
  ---------------------------------------------------
  alpha Z        PSCENC =       252.91199290
  Ewald energy   TEWEN  =      9621.20448307
  -1/2 Hartree   DENC   =    -17546.27633317
  -exchange  EXHF       =         0.00000000
  -V(xc)+E(xc)   XCENC  =        81.67945195
  PAW double counting   =      7307.10104293    -7399.77233888
  entropy T*S    EENTRO =        -0.02212364
  eigenvalues    EBANDS =      -369.00048998
  atomic energy  EATOM  =      7950.96879731
  ---------------------------------------------------
  free energy    TOTEN  =      -101.20551752 eV

  energy without entropy =     -101.18339388  energy(sigma->0) =     -101.19998661


--------------------------------------------------------------------------------------------------------




----------------------------------------- Iteration    1(   5)  ---------------------------------------


     EDDAV:  cpu time   34.97: real time   35.02
       DOS:  cpu time    0.00: real time    0.01
    --------------------------------------------
      LOOP:  cpu time   34.98: real time   35.03

 eigenvalue-minimisations  :  1918
 total energy-change (2. order) :-0.7468091E+00  (-0.6498172E+00)
 number of electron     110.0000000 magnetization      14.0000000
 augmentation part      110.0000000 magnetization      14.0000000

 Free energy of the ion-electron system (eV)
  ---------------------------------------------------
  alpha Z        PSCENC =       252.91199290
  Ewald energy   TEWEN  =      9621.20448307
  -1/2 Hartree   DENC   =    -17546.27633317
  -exchange  EXHF       =         0.00000000
  -V(xc)+E(xc)   XCENC  =        81.67945195
  PAW double counting   =      7307.10104293    -7399.77233888
  entropy T*S    EENTRO =        -0.02469756
  eigenvalues    EBANDS =      -369.74472520
  atomic energy  EATOM  =      7950.96879731
  ---------------------------------------------------
  free energy    TOTEN  =      -101.95232666 eV

  energy without entropy =     -101.92762910  energy(sigma->0) =     -101.94615227


--------------------------------------------------------------------------------------------------------




----------------------------------------- Iteration    1(   6)  ---------------------------------------


     EDDAV:  cpu time   33.54: real time   33.59
       DOS:  cpu time    0.00: real time    0.00
    --------------------------------------------
      LOOP:  cpu time   33.55: real time   33.59

 eigenvalue-minimisations  :  1895
 total energy-change (2. order) :-0.9900653E-01  (-0.8867862E-01)
 number of electron     110.0000000 magnetization      14.0000000
 augmentation part      110.0000000 magnetization      14.0000000

 Free energy of the ion-electron system (eV)
  ---------------------------------------------------
  alpha Z        PSCENC =       252.91199290
  Ewald energy   TEWEN  =      9621.20448307
  -1/2 Hartree   DENC   =    -17546.27633317
  -exchange  EXHF       =         0.00000000
  -V(xc)+E(xc)   XCENC  =        81.67945195
  PAW double counting   =      7307.10104293    -7399.77233888
  entropy T*S    EENTRO =        -0.02096119
  eigenvalues    EBANDS =      -369.84746810
  atomic energy  EATOM  =      7950.96879731
  ---------------------------------------------------
  free energy    TOTEN  =      -102.05133319 eV

  energy without entropy =     -102.03037200  energy(sigma->0) =     -102.04609289


--------------------------------------------------------------------------------------------------------




----------------------------------------- Iteration    1(   7)  ---------------------------------------


     EDDAV:  cpu time   36.44: real time   36.50
       DOS:  cpu time    0.00: real time    0.00
    --------------------------------------------
      LOOP:  cpu time   36.45: real time   36.50

 eigenvalue-minimisations  :  1880
 total energy-change (2. order) :-0.8837438E-02  (-0.8572064E-02)
 number of electron     110.0000000 magnetization      14.0000000
 augmentation part      110.0000000 magnetization      14.0000000

 Free energy of the ion-electron system (eV)
  ---------------------------------------------------
  alpha Z        PSCENC =       252.91199290
  Ewald energy   TEWEN  =      9621.20448307
  -1/2 Hartree   DENC   =    -17546.27633317
  -exchange  EXHF       =         0.00000000
  -V(xc)+E(xc)   XCENC  =        81.67945195
  PAW double counting   =      7307.10104293    -7399.77233888
  entropy T*S    EENTRO =        -0.02108084
  eigenvalues    EBANDS =      -369.85618588
  atomic energy  EATOM  =      7950.96879731
  ---------------------------------------------------
  free energy    TOTEN  =      -102.06017063 eV

  energy without entropy =     -102.03908978  energy(sigma->0) =     -102.05490042


--------------------------------------------------------------------------------------------------------




----------------------------------------- Iteration    1(   8)  ---------------------------------------


     EDDAV:  cpu time   26.07: real time   26.10
       DOS:  cpu time    0.00: real time    0.00
    --------------------------------------------
      LOOP:  cpu time   26.07: real time   26.11

 eigenvalue-minimisations  :  1424
 total energy-change (2. order) :-0.8258576E-03  (-0.8123135E-03)
 number of electron     110.0000000 magnetization      14.0000000
 augmentation part      110.0000000 magnetization      14.0000000

 Free energy of the ion-electron system (eV)
  ---------------------------------------------------
  alpha Z        PSCENC =       252.91199290
  Ewald energy   TEWEN  =      9621.20448307
  -1/2 Hartree   DENC   =    -17546.27633317
  -exchange  EXHF       =         0.00000000
  -V(xc)+E(xc)   XCENC  =        81.67945195
  PAW double counting   =      7307.10104293    -7399.77233888
  entropy T*S    EENTRO =        -0.02110202
  eigenvalues    EBANDS =      -369.85699057
  atomic energy  EATOM  =      7950.96879731
  ---------------------------------------------------
  free energy    TOTEN  =      -102.06099649 eV

  energy without entropy =     -102.03989447  energy(sigma->0) =     -102.05572098


--------------------------------------------------------------------------------------------------------




----------------------------------------- Iteration    1(   9)  ---------------------------------------


     EDDAV:  cpu time   23.20: real time   23.24
       DOS:  cpu time    0.01: real time    0.01
    --------------------------------------------
      LOOP:  cpu time   23.21: real time   23.24

 eigenvalue-minimisations  :  1184
 total energy-change (2. order) :-0.1064316E-03  (-0.1055539E-03)
 number of electron     110.0000000 magnetization      14.0000000
 augmentation part      110.0000000 magnetization      14.0000000

 Free energy of the ion-electron system (eV)
  ---------------------------------------------------
  alpha Z        PSCENC =       252.91199290
  Ewald energy   TEWEN  =      9621.20448307
  -1/2 Hartree   DENC   =    -17546.27633317
  -exchange  EXHF       =         0.00000000
  -V(xc)+E(xc)   XCENC  =        81.67945195
  PAW double counting   =      7307.10104293    -7399.77233888
  entropy T*S    EENTRO =        -0.02112094
  eigenvalues    EBANDS =      -369.85707808
  atomic energy  EATOM  =      7950.96879731
  ---------------------------------------------------
  free energy    TOTEN  =      -102.06110292 eV

  energy without entropy =     -102.03998198  energy(sigma->0) =     -102.05582268


--------------------------------------------------------------------------------------------------------




----------------------------------------- Iteration    1(  10)  ---------------------------------------


     EDDAV:  cpu time   22.40: real time   22.44
       DOS:  cpu time    0.00: real time    0.00
    CHARGE:  cpu time    1.76: real time    1.76
    MIXING:  cpu time    0.02: real time    0.01
    --------------------------------------------
      LOOP:  cpu time   24.18: real time   24.22

 eigenvalue-minimisations  :  1000
 total energy-change (2. order) :-0.1626293E-04  (-0.1620895E-04)
 number of electron     110.0000182 magnetization      14.3757140
 augmentation part       41.9747885 magnetization       9.1753290

 Broyden mixing:
  rms(total) = 0.38175E+01    rms(broyden)= 0.38158E+01
  rms(prec ) = 0.41631E+01
  weight for this iteration     100.00

 Free energy of the ion-electron system (eV)
  ---------------------------------------------------
  alpha Z        PSCENC =       252.91199290
  Ewald energy   TEWEN  =      9621.20448307
  -1/2 Hartree   DENC   =    -17546.27633317
  -exchange  EXHF       =         0.00000000
  -V(xc)+E(xc)   XCENC  =        81.67945195
  PAW double counting   =      7307.10104293    -7399.77233888
  entropy T*S    EENTRO =        -0.02112562
  eigenvalues    EBANDS =      -369.85708966
  atomic energy  EATOM  =      7950.96879731
  ---------------------------------------------------
  free energy    TOTEN  =      -102.06111918 eV

  energy without entropy =     -102.03999356  energy(sigma->0) =     -102.05583778


--------------------------------------------------------------------------------------------------------




----------------------------------------- Iteration    1(  11)  ---------------------------------------


    POTLOK:  cpu time    0.82: real time    0.83
    SETDIJ:  cpu time    0.14: real time    0.14
    EDDIAG:  cpu time    3.83: real time    3.83
  RMM-DIIS:  cpu time   19.58: real time   19.61
    ORTHCH:  cpu time    0.88: real time    0.88
       DOS:  cpu time    0.00: real time    0.00
    CHARGE:  cpu time    2.10: real time    2.10
    MIXING:  cpu time    0.02: real time    0.02
    --------------------------------------------
      LOOP:  cpu time   27.37: real time   27.41

 eigenvalue-minimisations  :  1171
 total energy-change (2. order) :-0.1328786E+02  (-0.2256954E+02)
 number of electron     110.0000244 magnetization      14.1951448
 augmentation part       51.3601767 magnetization      11.6642523

 Broyden mixing:
  rms(total) = 0.72062E+01    rms(broyden)= 0.72056E+01
  rms(prec ) = 0.83887E+01
  weight for this iteration     100.00

 eigenvalues of (default mixing * dielectric matrix)
  average eigenvalue GAMMA=   0.2818
  0.2818

 Free energy of the ion-electron system (eV)
  ---------------------------------------------------
  alpha Z        PSCENC =       252.91199290
  Ewald energy   TEWEN  =      9621.20448307
  -1/2 Hartree   DENC   =    -17392.42878349
  -exchange  EXHF       =         0.00000000
  -V(xc)+E(xc)   XCENC  =        76.63365623
  PAW double counting   =      7869.31916168    -7935.16724278
  entropy T*S    EENTRO =        -0.00009897
  eigenvalues    EBANDS =      -558.79094896
  atomic energy  EATOM  =      7950.96879731
  ---------------------------------------------------
  free energy    TOTEN  =      -115.34898301 eV

  energy without entropy =     -115.34888404  energy(sigma->0) =     -115.34895827


--------------------------------------------------------------------------------------------------------




----------------------------------------- Iteration    1(  12)  ---------------------------------------


    POTLOK:  cpu time    0.82: real time    0.82
    SETDIJ:  cpu time    0.14: real time    0.14
    EDDIAG:  cpu time    4.73: real time    4.74
  RMM-DIIS:  cpu time   16.68: real time   16.71
    ORTHCH:  cpu time    0.44: real time    0.44
       DOS:  cpu time    0.00: real time    0.00
    CHARGE:  cpu time    1.82: real time    1.83
    MIXING:  cpu time    0.02: real time    0.02
    --------------------------------------------
      LOOP:  cpu time   24.66: real time   24.70

 eigenvalue-minimisations  :  1172
 total energy-change (2. order) : 0.6728894E+01  (-0.1218897E+02)
 number of electron     110.0000281 magnetization      14.5295452
 augmentation part       51.1655303 magnetization       9.3291408

 Broyden mixing:
  rms(total) = 0.61036E+01    rms(broyden)= 0.61020E+01
  rms(prec ) = 0.70724E+01
  weight for this iteration     100.00

 eigenvalues of (default mixing * dielectric matrix)
  average eigenvalue GAMMA=   0.3421
  0.5621  0.1222

 Free energy of the ion-electron system (eV)
  ---------------------------------------------------
  alpha Z        PSCENC =       252.91199290
  Ewald energy   TEWEN  =      9621.20448307
  -1/2 Hartree   DENC   =    -17400.32029667
  -exchange  EXHF       =         0.00000000
  -V(xc)+E(xc)   XCENC  =        76.88409407
  PAW double counting   =      8049.95778673    -8124.27354307
  entropy T*S    EENTRO =        -0.02366913
  eigenvalues    EBANDS =      -535.92973470
  atomic energy  EATOM  =      7950.96879731
  ---------------------------------------------------
  free energy    TOTEN  =      -108.62008950 eV

  energy without entropy =     -108.59642036  energy(sigma->0) =     -108.61417222


--------------------------------------------------------------------------------------------------------




----------------------------------------- Iteration    1(  13)  ---------------------------------------


    POTLOK:  cpu time    1.21: real time    1.21
    SETDIJ:  cpu time    0.20: real time    0.20
    EDDIAG:  cpu time    6.44: real time    6.45
  RMM-DIIS:  cpu time   20.86: real time   20.89
    ORTHCH:  cpu time    0.44: real time    0.44
       DOS:  cpu time    0.00: real time    0.00
    CHARGE:  cpu time    1.75: real time    1.75
    MIXING:  cpu time    0.02: real time    0.02
    --------------------------------------------
      LOOP:  cpu time   30.91: real time   30.96

 eigenvalue-minimisations  :  1174
 total energy-change (2. order) : 0.1464758E+02  (-0.2120432E+01)
 number of electron     110.0000237 magnetization      14.6853921
 augmentation part       48.8153805 magnetization      10.1633824

 Broyden mixing:
  rms(total) = 0.43375E+01    rms(broyden)= 0.43364E+01
  rms(prec ) = 0.54483E+01
  weight for this iteration     100.00

 eigenvalues of (default mixing * dielectric matrix)
  average eigenvalue GAMMA=   0.3435
  0.6523  0.2097  0.1685

 Free energy of the ion-electron system (eV)
  ---------------------------------------------------
  alpha Z        PSCENC =       252.91199290
  Ewald energy   TEWEN  =      9621.20448307
  -1/2 Hartree   DENC   =    -17474.24601076
  -exchange  EXHF       =         0.00000000
  -V(xc)+E(xc)   XCENC  =        79.54544374
  PAW double counting   =      8420.77800218    -8511.69295880
  entropy T*S    EENTRO =         0.00496730
  eigenvalues    EBANDS =      -433.44723075
  atomic energy  EATOM  =      7950.96879731
  ---------------------------------------------------
  free energy    TOTEN  =       -93.97251382 eV

  energy without entropy =      -93.97748112  energy(sigma->0) =      -93.97375564


--------------------------------------------------------------------------------------------------------




----------------------------------------- Iteration    1(  14)  ---------------------------------------


    POTLOK:  cpu time    0.83: real time    0.83
    SETDIJ:  cpu time    0.14: real time    0.14
    EDDIAG:  cpu time    3.82: real time    3.83
  RMM-DIIS:  cpu time   22.34: real time   22.37
    ORTHCH:  cpu time    0.44: real time    0.44
       DOS:  cpu time    0.00: real time    0.00
    CHARGE:  cpu time    2.01: real time    2.01
    MIXING:  cpu time    0.03: real time    0.03
    --------------------------------------------
      LOOP:  cpu time   29.62: real time   29.66

 eigenvalue-minimisations  :  1181
 total energy-change (2. order) :-0.2578754E+01  (-0.2718692E+01)
 number of electron     110.0000237 magnetization      14.9383449
 augmentation part       48.1284925 magnetization      11.4012287

 Broyden mixing:
  rms(total) = 0.46770E+01    rms(broyden)= 0.46762E+01
  rms(prec ) = 0.58021E+01
  weight for this iteration     100.00

 eigenvalues of (default mixing * dielectric matrix)
  average eigenvalue GAMMA=   0.3739
  0.8768  0.3823  0.1533  0.0833

 Free energy of the ion-electron system (eV)
  ---------------------------------------------------
  alpha Z        PSCENC =       252.91199290
  Ewald energy   TEWEN  =      9621.20448307
  -1/2 Hartree   DENC   =    -17490.78780736
  -exchange  EXHF       =         0.00000000
  -V(xc)+E(xc)   XCENC  =        79.88820179
  PAW double counting   =      8519.30497922    -8612.84798099
  entropy T*S    EENTRO =        -0.00067179
  eigenvalues    EBANDS =      -417.19326198
  atomic energy  EATOM  =      7950.96879731
  ---------------------------------------------------
  free energy    TOTEN  =       -96.55126783 eV

  energy without entropy =      -96.55059603  energy(sigma->0) =      -96.55109988


--------------------------------------------------------------------------------------------------------




----------------------------------------- Iteration    1(  15)  ---------------------------------------


    POTLOK:  cpu time    1.24: real time    1.24
    SETDIJ:  cpu time    0.20: real time    0.20
    EDDIAG:  cpu time    3.86: real time    3.87
  RMM-DIIS:  cpu time   16.29: real time   16.31
    ORTHCH:  cpu time    0.90: real time    0.91
       DOS:  cpu time    0.00: real time    0.01
    CHARGE:  cpu time    2.74: real time    2.74
    MIXING:  cpu time    0.03: real time    0.03
    --------------------------------------------
      LOOP:  cpu time   25.27: real time   25.30

 eigenvalue-minimisations  :  1201
 total energy-change (2. order) : 0.1155532E+01  (-0.1464203E+01)
 number of electron     110.0000219 magnetization      15.0912417
 augmentation part       47.7313025 magnetization      11.0317277

 Broyden mixing:
  rms(total) = 0.39266E+01    rms(broyden)= 0.39259E+01
  rms(prec ) = 0.49847E+01
  weight for this iteration     100.00

 eigenvalues of (default mixing * dielectric matrix)
  average eigenvalue GAMMA=   0.3504
  0.9744  0.3564  0.1652  0.1652  0.0907

 Free energy of the ion-electron system (eV)
  ---------------------------------------------------
  alpha Z        PSCENC =       252.91199290
  Ewald energy   TEWEN  =      9621.20448307
  -1/2 Hartree   DENC   =    -17506.74418991
  -exchange  EXHF       =         0.00000000
  -V(xc)+E(xc)   XCENC  =        80.28607885
  PAW double counting   =      8776.39329750    -8874.91939709
  entropy T*S    EENTRO =        -0.00097347
  eigenvalues    EBANDS =      -395.49582541
  atomic energy  EATOM  =      7950.96879731
  ---------------------------------------------------
  free energy    TOTEN  =       -95.39573625 eV

  energy without entropy =      -95.39476278  energy(sigma->0) =      -95.39549289


--------------------------------------------------------------------------------------------------------




----------------------------------------- Iteration    1(  16)  ---------------------------------------


    POTLOK:  cpu time    0.85: real time    0.85
    SETDIJ:  cpu time    0.14: real time    0.13
    EDDIAG:  cpu time    4.89: real time    4.89
  RMM-DIIS:  cpu time   22.16: real time   22.20
    ORTHCH:  cpu time    0.99: real time    0.99
       DOS:  cpu time    0.00: real time    0.01
    CHARGE:  cpu time    2.89: real time    2.89
    MIXING:  cpu time    0.03: real time    0.03
    --------------------------------------------
      LOOP:  cpu time   31.95: real time   32.00

 eigenvalue-minimisations  :  1196
 total energy-change (2. order) : 0.5914722E+01  (-0.8659089E+00)
 number of electron     110.0000227 magnetization      15.8322926
 augmentation part       47.6186899 magnetization      11.3635301

 Broyden mixing:
  rms(total) = 0.19663E+01    rms(broyden)= 0.19653E+01
  rms(prec ) = 0.23782E+01
  weight for this iteration     100.00

 eigenvalues of (default mixing * dielectric matrix)
  average eigenvalue GAMMA=   0.4240
  1.4105  0.4000  0.4000  0.1511  0.0911  0.0911

 Free energy of the ion-electron system (eV)
  ---------------------------------------------------
  alpha Z        PSCENC =       252.91199290
  Ewald energy   TEWEN  =      9621.20448307
  -1/2 Hartree   DENC   =    -17511.75549393
  -exchange  EXHF       =         0.00000000
  -V(xc)+E(xc)   XCENC  =        80.58137126
  PAW double counting   =      8851.10578677    -8950.56545985
  entropy T*S    EENTRO =        -0.00473729
  eigenvalues    EBANDS =      -383.92775405
  atomic energy  EATOM  =      7950.96879731
  ---------------------------------------------------
  free energy    TOTEN  =       -89.48101382 eV

  energy without entropy =      -89.47627653  energy(sigma->0) =      -89.47982950


--------------------------------------------------------------------------------------------------------




----------------------------------------- Iteration    1(  17)  ---------------------------------------


    POTLOK:  cpu time    0.86: real time    0.86
    SETDIJ:  cpu time    0.13: real time    0.13
    EDDIAG:  cpu time    4.45: real time    4.45
  RMM-DIIS:  cpu time   24.23: real time   24.28
    ORTHCH:  cpu time    0.44: real time    0.44
       DOS:  cpu time    0.00: real time    0.00
    CHARGE:  cpu time    1.80: real time    1.80
    MIXING:  cpu time    0.02: real time    0.02
    --------------------------------------------
      LOOP:  cpu time   31.94: real time   31.99

 eigenvalue-minimisations  :  1192
 total energy-change (2. order) :-0.2200419E+00  (-0.4826559E+00)
 number of electron     110.0000226 magnetization      16.0902169
 augmentation part       47.8328417 magnetization      10.9592115

 Broyden mixing:
  rms(total) = 0.23679E+01    rms(broyden)= 0.23672E+01
  rms(prec ) = 0.28032E+01
  weight for this iteration     100.00

 eigenvalues of (default mixing * dielectric matrix)
  average eigenvalue GAMMA=   0.3893
  1.4646  0.3837  0.3837  0.1524  0.1524  0.1026  0.0859

 Free energy of the ion-electron system (eV)
  ---------------------------------------------------
  alpha Z        PSCENC =       252.91199290
  Ewald energy   TEWEN  =      9621.20448307
  -1/2 Hartree   DENC   =    -17512.23091062
  -exchange  EXHF       =         0.00000000
  -V(xc)+E(xc)   XCENC  =        82.31627047
  PAW double counting   =      9021.36974699    -9122.80089446
  entropy T*S    EENTRO =         0.00355190
  eigenvalues    EBANDS =      -383.44409327
  atomic energy  EATOM  =      7950.96879731
  ---------------------------------------------------
  free energy    TOTEN  =       -89.70105571 eV

  energy without entropy =      -89.70460761  energy(sigma->0) =      -89.70194368


--------------------------------------------------------------------------------------------------------




----------------------------------------- Iteration    1(  18)  ---------------------------------------


    POTLOK:  cpu time    0.84: real time    0.83
    SETDIJ:  cpu time    0.14: real time    0.14
    EDDIAG:  cpu time    4.27: real time    4.28
  RMM-DIIS:  cpu time   18.88: real time   18.91
    ORTHCH:  cpu time    0.88: real time    0.88
       DOS:  cpu time    0.00: real time    0.00
    CHARGE:  cpu time    1.77: real time    1.77
    MIXING:  cpu time    0.02: real time    0.03
    --------------------------------------------
      LOOP:  cpu time   26.80: real time   26.84

 eigenvalue-minimisations  :  1191
 total energy-change (2. order) : 0.1226727E+01  (-0.1900134E+00)
 number of electron     110.0000224 magnetization      15.9316062
 augmentation part       48.0582454 magnetization      10.3738634

 Broyden mixing:
  rms(total) = 0.15889E+01    rms(broyden)= 0.15882E+01
  rms(prec ) = 0.16946E+01
  weight for this iteration     100.00

 eigenvalues of (default mixing * dielectric matrix)
  average eigenvalue GAMMA=   0.3764
  1.3933  0.4160  0.4160  0.3279  0.1466  0.1195  0.1077  0.0844

 Free energy of the ion-electron system (eV)
  ---------------------------------------------------
  alpha Z        PSCENC =       252.91199290
  Ewald energy   TEWEN  =      9621.20448307
  -1/2 Hartree   DENC   =    -17513.25267996
  -exchange  EXHF       =         0.00000000
  -V(xc)+E(xc)   XCENC  =        82.83006532
  PAW double counting   =      9061.03425652    -9162.92513383
  entropy T*S    EENTRO =         0.00356867
  eigenvalues    EBANDS =      -381.24967903
  atomic energy  EATOM  =      7950.96879731
  ---------------------------------------------------
  free energy    TOTEN  =       -88.47432904 eV

  energy without entropy =      -88.47789771  energy(sigma->0) =      -88.47522120


--------------------------------------------------------------------------------------------------------




----------------------------------------- Iteration    1(  19)  ---------------------------------------


    POTLOK:  cpu time    0.82: real time    0.83
    SETDIJ:  cpu time    0.14: real time    0.14
    EDDIAG:  cpu time    3.92: real time    3.93
  RMM-DIIS:  cpu time   19.72: real time   19.75
    ORTHCH:  cpu time    0.44: real time    0.43
       DOS:  cpu time    0.00: real time    0.00
    CHARGE:  cpu time    1.78: real time    1.78
    MIXING:  cpu time    0.03: real time    0.03
    --------------------------------------------
      LOOP:  cpu time   26.85: real time   26.88

 eigenvalue-minimisations  :  1439
 total energy-change (2. order) :-0.1995820E+00  (-0.4699658E-01)
 number of electron     110.0000226 magnetization      16.0158891
 augmentation part       48.0529338 magnetization      10.5747301

 Broyden mixing:
  rms(total) = 0.16510E+01    rms(broyden)= 0.16510E+01
  rms(prec ) = 0.17886E+01
  weight for this iteration     100.00

 eigenvalues of (default mixing * dielectric matrix)
  average eigenvalue GAMMA=   0.3668
  1.4119  0.4142  0.4142  0.3047  0.3047  0.1548  0.1063  0.1063  0.0837

 Free energy of the ion-electron system (eV)
  ---------------------------------------------------
  alpha Z        PSCENC =       252.91199290
  Ewald energy   TEWEN  =      9621.20448307
  -1/2 Hartree   DENC   =    -17513.00339054
  -exchange  EXHF       =         0.00000000
  -V(xc)+E(xc)   XCENC  =        82.40999281
  PAW double counting   =      9048.27026751    -9150.00373695
  entropy T*S    EENTRO =        -0.00176831
  eigenvalues    EBANDS =      -381.43054881
  atomic energy  EATOM  =      7950.96879731
  ---------------------------------------------------
  free energy    TOTEN  =       -88.67391101 eV

  energy without entropy =      -88.67214271  energy(sigma->0) =      -88.67346894


--------------------------------------------------------------------------------------------------------




----------------------------------------- Iteration    1(  20)  ---------------------------------------


    POTLOK:  cpu time    0.83: real time    0.83
    SETDIJ:  cpu time    0.14: real time    0.14
    EDDIAG:  cpu time    3.84: real time    3.85
  RMM-DIIS:  cpu time   18.60: real time   18.62
    ORTHCH:  cpu time    0.44: real time    0.44
       DOS:  cpu time    0.00: real time    0.00
    CHARGE:  cpu time    1.75: real time    1.75
    MIXING:  cpu time    0.03: real time    0.03
    --------------------------------------------
      LOOP:  cpu time   25.62: real time   25.66

 eigenvalue-minimisations  :  1370
 total energy-change (2. order) :-0.2283335E-01  (-0.9353616E-02)
 number of electron     110.0000225 magnetization      16.4269560
 augmentation part       48.0703145 magnetization      10.9861696

 Broyden mixing:
  rms(total) = 0.16779E+01    rms(broyden)= 0.16779E+01
  rms(prec ) = 0.18402E+01
  weight for this iteration     100.00

 eigenvalues of (default mixing * dielectric matrix)
  average eigenvalue GAMMA=   0.3858
  1.4244  0.5268  0.5268  0.4197  0.4197  0.1540  0.1168  0.1052  0.0870  0.0776

 Free energy of the ion-electron system (eV)
  ---------------------------------------------------
  alpha Z        PSCENC =       252.91199290
  Ewald energy   TEWEN  =      9621.20448307
  -1/2 Hartree   DENC   =    -17513.45454276
  -exchange  EXHF       =         0.00000000
  -V(xc)+E(xc)   XCENC  =        82.58072526
  PAW double counting   =      9053.79598720    -9155.61150790
  entropy T*S    EENTRO =        -0.00156739
  eigenvalues    EBANDS =      -381.09111206
  atomic energy  EATOM  =      7950.96879731
  ---------------------------------------------------
  free energy    TOTEN  =       -88.69674436 eV

  energy without entropy =      -88.69517698  energy(sigma->0) =      -88.69635252


--------------------------------------------------------------------------------------------------------




----------------------------------------- Iteration    1(  21)  ---------------------------------------


    POTLOK:  cpu time    0.80: real time    0.81
    SETDIJ:  cpu time    0.14: real time    0.13
    EDDIAG:  cpu time    3.73: real time    3.73
  RMM-DIIS:  cpu time   16.26: real time   16.29
    ORTHCH:  cpu time    0.44: real time    0.44
       DOS:  cpu time    0.00: real time    0.00
    CHARGE:  cpu time    1.77: real time    1.77
    MIXING:  cpu time    0.03: real time    0.03
    --------------------------------------------
      LOOP:  cpu time   23.16: real time   23.20

 eigenvalue-minimisations  :  1185
 total energy-change (2. order) : 0.8314563E-01  (-0.3096931E-01)
 number of electron     110.0000225 magnetization      18.4288376
 augmentation part       48.0879481 magnetization      12.9901447

 Broyden mixing:
  rms(total) = 0.16500E+01    rms(broyden)= 0.16499E+01
  rms(prec ) = 0.18239E+01
  weight for this iteration     100.00

 eigenvalues of (default mixing * dielectric matrix)
  average eigenvalue GAMMA=   0.4859
  1.4299  1.0539  1.0539  0.4660  0.4660  0.3357  0.1599  0.1017  0.1017  0.0828
  0.0936

 Free energy of the ion-electron system (eV)
  ---------------------------------------------------
  alpha Z        PSCENC =       252.91199290
  Ewald energy   TEWEN  =      9621.20448307
  -1/2 Hartree   DENC   =    -17515.49813305
  -exchange  EXHF       =         0.00000000
  -V(xc)+E(xc)   XCENC  =        83.22995977
  PAW double counting   =      9076.12927051    -9178.36948689
  entropy T*S    EENTRO =        -0.00283795
  eigenvalues    EBANDS =      -379.18764441
  atomic energy  EATOM  =      7950.96879731
  ---------------------------------------------------
  free energy    TOTEN  =       -88.61359874 eV

  energy without entropy =      -88.61076079  energy(sigma->0) =      -88.61288925


--------------------------------------------------------------------------------------------------------




----------------------------------------- Iteration    1(  22)  ---------------------------------------


    POTLOK:  cpu time    0.83: real time    0.83
    SETDIJ:  cpu time    0.14: real time    0.14
    EDDIAG:  cpu time    3.81: real time    3.81
  RMM-DIIS:  cpu time   15.96: real time   15.99
    ORTHCH:  cpu time    0.44: real time    0.44
       DOS:  cpu time    0.00: real time    0.00
    CHARGE:  cpu time    1.76: real time    1.76
    MIXING:  cpu time    0.03: real time    0.03
    --------------------------------------------
      LOOP:  cpu time   22.98: real time   23.01

 eigenvalue-minimisations  :  1171
 total energy-change (2. order) : 0.3722209E+00  (-0.2633194E+00)
 number of electron     110.0000223 magnetization      19.4696500
 augmentation part       48.1709625 magnetization      13.8518765

 Broyden mixing:
  rms(total) = 0.16077E+01    rms(broyden)= 0.16071E+01
  rms(prec ) = 0.17712E+01
  weight for this iteration     100.00

 eigenvalues of (default mixing * dielectric matrix)
  average eigenvalue GAMMA=   0.4785
  1.4421  1.1666  1.1666  0.4662  0.4662  0.3361  0.1616  0.1566  0.1021  0.1021
  0.0828  0.0929

 Free energy of the ion-electron system (eV)
  ---------------------------------------------------
  alpha Z        PSCENC =       252.91199290
  Ewald energy   TEWEN  =      9621.20448307
  -1/2 Hartree   DENC   =    -17524.33571022
  -exchange  EXHF       =         0.00000000
  -V(xc)+E(xc)   XCENC  =        85.70898023
  PAW double counting   =      9177.80182300    -9281.87658374
  entropy T*S    EENTRO =         0.00518040
  eigenvalues    EBANDS =      -370.63034083
  atomic energy  EATOM  =      7950.96879731
  ---------------------------------------------------
  free energy    TOTEN  =       -88.24137788 eV

  energy without entropy =      -88.24655827  energy(sigma->0) =      -88.24267298


--------------------------------------------------------------------------------------------------------




----------------------------------------- Iteration    1(  23)  ---------------------------------------


    POTLOK:  cpu time    0.83: real time    0.83
    SETDIJ:  cpu time    0.14: real time    0.14
    EDDIAG:  cpu time    3.81: real time    3.81
  RMM-DIIS:  cpu time   16.18: real time   16.20
    ORTHCH:  cpu time    0.43: real time    0.43
       DOS:  cpu time    0.00: real time    0.00
    CHARGE:  cpu time    1.73: real time    1.73
    MIXING:  cpu time    0.03: real time    0.03
    --------------------------------------------
      LOOP:  cpu time   23.14: real time   23.17

 eigenvalue-minimisations  :  1193
 total energy-change (2. order) : 0.6798326E+00  (-0.1412180E+00)
 number of electron     110.0000227 magnetization      21.8360955
 augmentation part       48.1418858 magnetization      16.3391672

 Broyden mixing:
  rms(total) = 0.11704E+01    rms(broyden)= 0.11697E+01
  rms(prec ) = 0.12081E+01
  weight for this iteration     100.00

 eigenvalues of (default mixing * dielectric matrix)
  average eigenvalue GAMMA=   0.5266
  1.4645  1.4645  1.4562  0.4848  0.4848  0.4102  0.4102  0.1596  0.1296  0.0828
  0.1024  0.1024  0.0934

 Free energy of the ion-electron system (eV)
  ---------------------------------------------------
  alpha Z        PSCENC =       252.91199290
  Ewald energy   TEWEN  =      9621.20448307
  -1/2 Hartree   DENC   =    -17529.00130922
  -exchange  EXHF       =         0.00000000
  -V(xc)+E(xc)   XCENC  =        87.01742344
  PAW double counting   =      9227.09258547    -9332.06974365
  entropy T*S    EENTRO =         0.00448370
  eigenvalues    EBANDS =      -365.69025829
  atomic energy  EATOM  =      7950.96879731
  ---------------------------------------------------
  free energy    TOTEN  =       -87.56154527 eV

  energy without entropy =      -87.56602897  energy(sigma->0) =      -87.56266620


--------------------------------------------------------------------------------------------------------




----------------------------------------- Iteration    1(  24)  ---------------------------------------


    POTLOK:  cpu time    0.81: real time    0.81
    SETDIJ:  cpu time    0.14: real time    0.13
    EDDIAG:  cpu time    3.74: real time    3.74
  RMM-DIIS:  cpu time   16.60: real time   16.63
    ORTHCH:  cpu time    0.44: real time    0.44
       DOS:  cpu time    0.00: real time    0.00
    CHARGE:  cpu time    1.76: real time    1.77
    MIXING:  cpu time    0.04: real time    0.04
    --------------------------------------------
      LOOP:  cpu time   23.53: real time   23.56

 eigenvalue-minimisations  :  1213
 total energy-change (2. order) : 0.1212640E+00  (-0.2011357E+00)
 number of electron     110.0000224 magnetization      23.2198001
 augmentation part       48.1663342 magnetization      17.5710789

 Broyden mixing:
  rms(total) = 0.13350E+01    rms(broyden)= 0.13346E+01
  rms(prec ) = 0.14571E+01
  weight for this iteration     100.00

 eigenvalues of (default mixing * dielectric matrix)
  average eigenvalue GAMMA=   0.5241
  1.5853  1.5853  1.4718  0.5119  0.5119  0.4231  0.4231  0.1567  0.1567  0.1324
  0.1021  0.1021  0.0828  0.0927

 Free energy of the ion-electron system (eV)
  ---------------------------------------------------
  alpha Z        PSCENC =       252.91199290
  Ewald energy   TEWEN  =      9621.20448307
  -1/2 Hartree   DENC   =    -17540.18838068
  -exchange  EXHF       =         0.00000000
  -V(xc)+E(xc)   XCENC  =        90.12600650
  PAW double counting   =      9320.92487043    -9427.46213853
  entropy T*S    EENTRO =        -0.01161526
  eigenvalues    EBANDS =      -355.91429704
  atomic energy  EATOM  =      7950.96879731
  ---------------------------------------------------
  free energy    TOTEN  =       -87.44028130 eV

  energy without entropy =      -87.42866604  energy(sigma->0) =      -87.43737749


--------------------------------------------------------------------------------------------------------




----------------------------------------- Iteration    1(  25)  ---------------------------------------


    POTLOK:  cpu time    0.83: real time    0.83
    SETDIJ:  cpu time    0.14: real time    0.14
    EDDIAG:  cpu time    3.82: real time    3.82
  RMM-DIIS:  cpu time   16.27: real time   16.29
    ORTHCH:  cpu time    0.42: real time    0.42
       DOS:  cpu time    0.00: real time    0.00
    CHARGE:  cpu time    1.69: real time    1.69
    MIXING:  cpu time    0.04: real time    0.04
    --------------------------------------------
      LOOP:  cpu time   23.20: real time   23.24

 eigenvalue-minimisations  :  1213
 total energy-change (2. order) : 0.5404661E+00  (-0.1064007E+00)
 number of electron     110.0000220 magnetization      24.0625043
 augmentation part       48.2762889 magnetization      18.0802744

 Broyden mixing:
  rms(total) = 0.11119E+01    rms(broyden)= 0.11114E+01
  rms(prec ) = 0.11476E+01
  weight for this iteration     100.00

 eigenvalues of (default mixing * dielectric matrix)
  average eigenvalue GAMMA=   0.5189
  1.6852  1.6852  1.4833  0.5219  0.5219  0.4261  0.4261  0.2548  0.1599  0.1342
  0.0828  0.1030  0.1030  0.0939  0.1019

 Free energy of the ion-electron system (eV)
  ---------------------------------------------------
  alpha Z        PSCENC =       252.91199290
  Ewald energy   TEWEN  =      9621.20448307
  -1/2 Hartree   DENC   =    -17545.86918660
  -exchange  EXHF       =         0.00000000
  -V(xc)+E(xc)   XCENC  =        92.06768758
  PAW double counting   =      9374.49795299    -9481.91325204
  entropy T*S    EENTRO =         0.00533604
  eigenvalues    EBANDS =      -350.77362649
  atomic energy  EATOM  =      7950.96879731
  ---------------------------------------------------
  free energy    TOTEN  =       -86.89981524 eV

  energy without entropy =      -86.90515128  energy(sigma->0) =      -86.90114925


--------------------------------------------------------------------------------------------------------




----------------------------------------- Iteration    1(  26)  ---------------------------------------


    POTLOK:  cpu time    0.79: real time    0.79
    SETDIJ:  cpu time    0.13: real time    0.13
    EDDIAG:  cpu time    3.65: real time    3.65
  RMM-DIIS:  cpu time   17.90: real time   17.93
    ORTHCH:  cpu time    0.43: real time    0.43
       DOS:  cpu time    0.00: real time    0.00
    CHARGE:  cpu time    1.74: real time    1.74
    MIXING:  cpu time    0.04: real time    0.04
    --------------------------------------------
      LOOP:  cpu time   24.68: real time   24.72

 eigenvalue-minimisations  :  1339
 total energy-change (2. order) : 0.1417604E+00  (-0.5549241E-01)
 number of electron     110.0000219 magnetization      25.3630316
 augmentation part       48.2578198 magnetization      19.4290372

 Broyden mixing:
  rms(total) = 0.97118E+00    rms(broyden)= 0.97107E+00
  rms(prec ) = 0.99870E+00
  weight for this iteration     100.00

 eigenvalues of (default mixing * dielectric matrix)
  average eigenvalue GAMMA=   0.5294
  1.7785  1.7785  1.5389  0.5497  0.5497  0.4097  0.4097  0.3271  0.3271  0.1596
  0.1397  0.0828  0.1022  0.1022  0.0929  0.1218

 Free energy of the ion-electron system (eV)
  ---------------------------------------------------
  alpha Z        PSCENC =       252.91199290
  Ewald energy   TEWEN  =      9621.20448307
  -1/2 Hartree   DENC   =    -17549.19745777
  -exchange  EXHF       =         0.00000000
  -V(xc)+E(xc)   XCENC  =        93.22498682
  PAW double counting   =      9403.93701679    -9511.94333172
  entropy T*S    EENTRO =         0.00400702
  eigenvalues    EBANDS =      -347.86854929
  atomic energy  EATOM  =      7950.96879731
  ---------------------------------------------------
  free energy    TOTEN  =       -86.75805487 eV

  energy without entropy =      -86.76206189  energy(sigma->0) =      -86.75905663


--------------------------------------------------------------------------------------------------------




----------------------------------------- Iteration    1(  27)  ---------------------------------------


    POTLOK:  cpu time    0.81: real time    0.81
    SETDIJ:  cpu time    0.14: real time    0.13
    EDDIAG:  cpu time    3.74: real time    3.74
  RMM-DIIS:  cpu time   16.39: real time   16.42
    ORTHCH:  cpu time    0.44: real time    0.44
       DOS:  cpu time    0.00: real time    0.00
    CHARGE:  cpu time    1.77: real time    1.78
    MIXING:  cpu time    0.05: real time    0.05
    --------------------------------------------
      LOOP:  cpu time   23.34: real time   23.37

 eigenvalue-minimisations  :  1189
 total energy-change (2. order) :-0.7333853E-01  (-0.4989438E-01)
 number of electron     110.0000219 magnetization      27.5010970
 augmentation part       48.2792479 magnetization      21.5385330

 Broyden mixing:
  rms(total) = 0.95777E+00    rms(broyden)= 0.95756E+00
  rms(prec ) = 0.10314E+01
  weight for this iteration     100.00

 eigenvalues of (default mixing * dielectric matrix)
  average eigenvalue GAMMA=   0.5797
  2.0154  1.7273  1.7273  0.7011  0.7011  0.5899  0.5899  0.4250  0.4250  0.1596
  0.1473  0.1473  0.0828  0.1023  0.1023  0.0929  0.1184

 Free energy of the ion-electron system (eV)
  ---------------------------------------------------
  alpha Z        PSCENC =       252.91199290
  Ewald energy   TEWEN  =      9621.20448307
  -1/2 Hartree   DENC   =    -17552.56599375
  -exchange  EXHF       =         0.00000000
  -V(xc)+E(xc)   XCENC  =        94.77486138
  PAW double counting   =      9455.18469598    -9563.95449900
  entropy T*S    EENTRO =        -0.00495791
  eigenvalues    EBANDS =      -345.35077338
  atomic energy  EATOM  =      7950.96879731
  ---------------------------------------------------
  free energy    TOTEN  =       -86.83139340 eV

  energy without entropy =      -86.82643550  energy(sigma->0) =      -86.83015393


--------------------------------------------------------------------------------------------------------




----------------------------------------- Iteration    1(  28)  ---------------------------------------


    POTLOK:  cpu time    0.82: real time    0.82
    SETDIJ:  cpu time    0.14: real time    0.14
    EDDIAG:  cpu time    3.82: real time    3.83
  RMM-DIIS:  cpu time   16.39: real time   16.41
    ORTHCH:  cpu time    0.43: real time    0.43
       DOS:  cpu time    0.00: real time    0.00
    CHARGE:  cpu time    1.75: real time    1.75
    MIXING:  cpu time    0.05: real time    0.05
    --------------------------------------------
      LOOP:  cpu time   23.40: real time   23.44

 eigenvalue-minimisations  :  1201
 total energy-change (2. order) :-0.7343158E+00  (-0.6988333E-01)
 number of electron     110.0000219 magnetization      27.5802111
 augmentation part       48.4473065 magnetization      21.7964132

 Broyden mixing:
  rms(total) = 0.65488E+00    rms(broyden)= 0.65435E+00
  rms(prec ) = 0.72675E+00
  weight for this iteration     100.00

 eigenvalues of (default mixing * dielectric matrix)
  average eigenvalue GAMMA=   0.6175
  2.1573  2.1573  1.8995  0.6943  0.6943  0.6258  0.6258  0.4682  0.4682  0.3697
  0.1598  0.1587  0.0828  0.0929  0.1022  0.1022  0.1390  0.1176

 Free energy of the ion-electron system (eV)
  ---------------------------------------------------
  alpha Z        PSCENC =       252.91199290
  Ewald energy   TEWEN  =      9621.20448307
  -1/2 Hartree   DENC   =    -17551.37821152
  -exchange  EXHF       =         0.00000000
  -V(xc)+E(xc)   XCENC  =        96.15602126
  PAW double counting   =      9559.25526704    -9668.75903344
  entropy T*S    EENTRO =        -0.00604007
  eigenvalues    EBANDS =      -347.91898578
  atomic energy  EATOM  =      7950.96879731
  ---------------------------------------------------
  free energy    TOTEN  =       -87.56570922 eV

  energy without entropy =      -87.55966915  energy(sigma->0) =      -87.56419921


--------------------------------------------------------------------------------------------------------




----------------------------------------- Iteration    1(  29)  ---------------------------------------


    POTLOK:  cpu time    0.83: real time    0.83
    SETDIJ:  cpu time    0.14: real time    0.14
    EDDIAG:  cpu time    3.82: real time    3.83
  RMM-DIIS:  cpu time   16.02: real time   16.04
    ORTHCH:  cpu time    0.43: real time    0.43
       DOS:  cpu time    0.00: real time    0.00
    CHARGE:  cpu time    1.75: real time    1.75
    MIXING:  cpu time    0.05: real time    0.05
    --------------------------------------------
      LOOP:  cpu time   23.04: real time   23.07

 eigenvalue-minimisations  :  1169
 total energy-change (2. order) :-0.1903683E+01  (-0.1331731E+00)
 number of electron     110.0000219 magnetization      28.3711472
 augmentation part       48.4560576 magnetization      22.2446125

 Broyden mixing:
  rms(total) = 0.81465E+00    rms(broyden)= 0.81445E+00
  rms(prec ) = 0.90700E+00
  weight for this iteration     100.00

 eigenvalues of (default mixing * dielectric matrix)
  average eigenvalue GAMMA=   0.6314
  2.4756  2.4756  1.8254  0.6944  0.6944  0.6392  0.6392  0.5004  0.5004  0.3771
  0.2159  0.1603  0.1614  0.1393  0.0828  0.1022  0.1022  0.0929  0.1178

 Free energy of the ion-electron system (eV)
  ---------------------------------------------------
  alpha Z        PSCENC =       252.91199290
  Ewald energy   TEWEN  =      9621.20448307
  -1/2 Hartree   DENC   =    -17546.30960441
  -exchange  EXHF       =         0.00000000
  -V(xc)+E(xc)   XCENC  =        93.54753594
  PAW double counting   =      9531.28694325    -9639.78409517
  entropy T*S    EENTRO =         0.00058023
  eigenvalues    EBANDS =      -353.29602566
  atomic energy  EATOM  =      7950.96879731
  ---------------------------------------------------
  free energy    TOTEN  =       -89.46939255 eV

  energy without entropy =      -89.46997278  energy(sigma->0) =      -89.46953761


--------------------------------------------------------------------------------------------------------




----------------------------------------- Iteration    1(  30)  ---------------------------------------


    POTLOK:  cpu time    0.82: real time    0.83
    SETDIJ:  cpu time    0.14: real time    0.14
    EDDIAG:  cpu time    3.81: real time    3.82
  RMM-DIIS:  cpu time   16.38: real time   16.40
    ORTHCH:  cpu time    0.43: real time    0.43
       DOS:  cpu time    0.00: real time    0.00
    CHARGE:  cpu time    1.74: real time    1.74
    MIXING:  cpu time    0.05: real time    0.06
    --------------------------------------------
      LOOP:  cpu time   23.37: real time   23.41

 eigenvalue-minimisations  :  1185
 total energy-change (2. order) :-0.7110308E+00  (-0.6468022E-01)
 number of electron     110.0000218 magnetization      30.6343059
 augmentation part       48.4079007 magnetization      24.3602080

 Broyden mixing:
  rms(total) = 0.52714E+00    rms(broyden)= 0.52694E+00
  rms(prec ) = 0.55786E+00
  weight for this iteration     100.00

[...]
     41      -0.4519     -0.03259
     42      -0.3558      0.00411
     43      -0.2184      0.00001
     44      -0.1025      0.00000
     45      -0.0816      0.00000
     46       0.0656      0.00000
     47       0.0742      0.00000
     48       0.1145      0.00000
     49       0.2477      0.00000
     50       0.2804      0.00000
     51       0.3111      0.00000
     52       0.3222      0.00000
     53       0.4042      0.00000
     54       0.4536      0.00000
     55       0.5463      0.00000
     56       0.5702      0.00000
     57       0.6082      0.00000
     58       0.6395      0.00000
     59       0.6878      0.00000
     60       0.7166      0.00000
     61       0.7376      0.00000
     62       0.7902      0.00000
     63       0.8226      0.00000
     64       0.8334      0.00000
     65       1.1413      0.00000
     66       1.1630      0.00000
     67       1.1888      0.00000
     68       1.2747      0.00000
     69       1.3502      0.00000
     70       1.3700      0.00000
     71       1.4974      0.00000
     72       1.5032      0.00000
     73       2.1383      0.00000

 k-point   4 :       0.5000    0.5000    0.0000
  band No.  band energies     occupation 
      1     -15.9508      1.00000
      2     -15.9447      1.00000
      3      -5.6702      1.00000
      4      -5.6533      1.00000
      5      -5.5518      1.00000
      6      -5.4400      1.00000
      7      -4.6661      1.00000
      8      -4.6466      1.00000
      9      -4.1184      1.00000
     10      -4.0943      1.00000
     11      -4.0427      1.00000
     12      -4.0329      1.00000
     13      -2.9638      1.00000
     14      -2.8600      1.00000
     15      -2.8159      1.00000
     16      -2.8068      1.00000
     17      -2.5932      1.00000
     18      -2.4495      1.00000
     19      -2.4352      1.00000
     20      -2.4170      1.00000
     21      -2.4118      1.00000
     22      -2.3325      1.00000
     23      -2.3322      1.00000
     24      -2.2764      1.00000
     25      -2.0453      1.00000
     26      -2.0084      1.00000
     27      -2.0054      1.00000
     28      -2.0017      1.00000
     29      -1.9647      1.00000
     30      -1.9309      1.00000
     31      -1.9091      1.00000
     32      -1.9050      1.00000
     33      -1.4935      1.00000
     34      -1.4174      1.00000
     35      -1.4025      1.00000
     36      -1.3799      1.00000
     37      -0.6511      1.02995
     38      -0.6071      0.79368
     39      -0.4700     -0.04776
     40      -0.4334     -0.01561
     41      -0.4262     -0.01008
     42      -0.4194     -0.00570
     43      -0.4145     -0.00311
     44      -0.3680      0.00479
     45      -0.3664      0.00473
     46      -0.3525      0.00388
     47      -0.3201      0.00165
     48      -0.2257      0.00002
     49      -0.1643      0.00000
     50      -0.0781      0.00000
     51      -0.0686      0.00000
     52      -0.0222      0.00000
     53       0.4916      0.00000
     54       0.4974      0.00000
     55       0.5042      0.00000
     56       0.5103      0.00000
     57       0.6345      0.00000
     58       0.7822      0.00000
     59       0.8790      0.00000
     60       0.9086      0.00000
     61       0.9411      0.00000
     62       0.9696      0.00000
     63       0.9828      0.00000
     64       0.9893      0.00000
     65       1.0225      0.00000
     66       1.0505      0.00000
     67       1.1458      0.00000
     68       1.1721      0.00000
     69       1.2742      0.00000
     70       1.2746      0.00000
     71       1.3030      0.00000
     72       1.3363      0.00000
     73       1.8275      0.00000


--------------------------------------------------------------------------------------------------------


 soft charge-density along one line, spin component           1
         0         1         2         3         4         5         6         7         8         9
 total charge-density along one line
 
 soft charge-density along one line, spin component           2
         0         1         2         3         4         5         6         7         8         9
 total charge-density along one line
 
 pseudopotential strength for first ion, spin component:           1
-10.115  -0.000  -0.000  -0.005  -0.000 -10.522  -0.000  -0.000
 -0.000 -10.160   0.000  -0.000   0.001  -0.000 -10.566   0.000
 -0.000   0.000 -10.258  -0.000  -0.015  -0.000   0.000 -10.661
 -0.005  -0.000  -0.000 -10.146  -0.000  -0.005  -0.000  -0.000
 -0.000   0.001  -0.015  -0.000 -10.168  -0.000   0.001  -0.015
-10.522  -0.000  -0.000  -0.005  -0.000 -10.890  -0.000  -0.000
 -0.000 -10.566   0.000  -0.000   0.001  -0.000 -10.933   0.000
 -0.000   0.000 -10.661  -0.000  -0.015  -0.000   0.000 -11.026
 -0.005  -0.000  -0.000 -10.553  -0.000  -0.005  -0.000  -0.000
 -0.000   0.001  -0.015  -0.000 -10.573  -0.000   0.001  -0.014
  0.000   0.001   0.008   0.000  -0.003   0.000   0.001   0.008
  0.000   0.001   0.014   0.000  -0.006   0.000   0.001   0.014
 -0.000   0.010   0.000   0.000  -0.000  -0.000   0.009   0.000
  0.000  -0.000   0.005  -0.000   0.000   0.000  -0.000   0.004
 -0.000   0.000   0.000   0.011  -0.000  -0.000   0.000   0.000
 -0.000   0.020   0.000   0.000  -0.000  -0.000   0.018   0.000
  0.000  -0.000   0.015  -0.000   0.000   0.000  -0.000   0.014
 -0.000   0.000   0.000   0.020  -0.000  -0.000   0.000   0.000
 pseudopotential strength for first ion, spin component:           2
 -8.146  -0.000   0.000   0.001  -0.000  -8.615  -0.000   0.000
 -0.000  -8.174  -0.003  -0.000   0.003  -0.000  -8.643  -0.003
  0.000  -0.003  -8.059  -0.000  -0.000   0.000  -0.003  -8.530
  0.001  -0.000  -0.000  -8.160  -0.000   0.001  -0.000  -0.000
 -0.000   0.003  -0.000  -0.000  -8.083  -0.000   0.003  -0.000
 -8.615  -0.000   0.000   0.001  -0.000  -9.044  -0.000   0.000
 -0.000  -8.643  -0.003  -0.000   0.003  -0.000  -9.071  -0.003
  0.000  -0.003  -8.530  -0.000  -0.000   0.000  -0.003  -8.961
  0.001  -0.000  -0.000  -8.629  -0.000   0.001  -0.000  -0.000
 -0.000   0.003  -0.000  -0.000  -8.553  -0.000   0.003  -0.000
  0.000   0.000  -0.002   0.000  -0.000   0.000   0.000  -0.002
  0.000   0.001  -0.004   0.000  -0.001   0.000   0.000  -0.005
 -0.000  -0.025   0.000   0.000   0.000  -0.000  -0.025   0.000
  0.000   0.000  -0.035  -0.000  -0.000   0.000   0.000  -0.034
  0.000   0.000   0.000  -0.026  -0.000   0.000   0.000   0.000
 -0.000  -0.028   0.000   0.000   0.000  -0.000  -0.028   0.000
  0.000   0.000  -0.037  -0.000  -0.000   0.000   0.000  -0.037
  0.000   0.000   0.000  -0.029  -0.000   0.000   0.000   0.000
 total augmentation occupancy for first ion, spin component:           1
  2.692   0.000   0.000   0.003   0.000  -1.310   0.000   0.000  -0.005   0.000   0.000   0.000   0.000   0.000  -0.001   0.000
  0.000   2.809  -0.000   0.000   0.004   0.000  -1.343   0.001   0.000  -0.004  -0.001   0.001  -0.150   0.002   0.000  -0.019
  0.000  -0.000   3.274   0.000   0.009   0.000   0.001  -1.769   0.000  -0.011   0.203   0.022  -0.001  -0.196   0.000  -0.000
  0.003   0.000   0.000   2.809   0.000  -0.005   0.000   0.000  -1.343   0.000   0.000   0.000   0.000   0.000  -0.149   0.000
  0.000   0.004   0.009   0.000   3.203   0.000  -0.004  -0.011   0.000  -1.822   0.011  -0.003   0.001  -0.003   0.000   0.000
 -1.310   0.000   0.000  -0.005   0.000   1.298   0.000   0.000   0.002   0.000   0.000   0.000   0.000   0.000  -0.001   0.000
  0.000  -1.343   0.001   0.000  -0.004   0.000   1.256  -0.001   0.000   0.004  -0.000  -0.000   0.267  -0.001   0.000  -0.015
  0.000   0.001  -1.769   0.000  -0.011   0.000  -0.001   1.531   0.000   0.004  -0.263   0.005   0.001   0.263   0.000   0.000
 -0.005   0.000   0.000  -1.343   0.000   0.002   0.000   0.000   1.258   0.000   0.000   0.000   0.000   0.000   0.269   0.000
  0.000  -0.004  -0.011   0.000  -1.822   0.000   0.004   0.004   0.000   1.746  -0.004   0.001  -0.001   0.002   0.000  -0.000
  0.000  -0.001   0.203   0.000   0.011   0.000  -0.000  -0.263   0.000  -0.004   1.999  -0.171   0.001   0.250   0.000   0.000
  0.000   0.001   0.022   0.000  -0.003   0.000  -0.000   0.005   0.000   0.001  -0.171   0.023   0.000  -0.030   0.000  -0.000
  0.000  -0.150  -0.001   0.000   0.001   0.000   0.267   0.001   0.000  -0.001   0.001   0.000   0.190  -0.000   0.000  -0.016
  0.000   0.002  -0.196   0.000  -0.003   0.000  -0.001   0.263   0.000   0.002   0.250  -0.030  -0.000   0.141   0.000   0.000
 -0.001   0.000   0.000  -0.149   0.000  -0.001   0.000   0.000   0.269   0.000   0.000   0.000   0.000   0.000   0.191   0.000
  0.000  -0.019  -0.000   0.000   0.000   0.000  -0.015   0.000   0.000  -0.000   0.000  -0.000  -0.016   0.000   0.000   0.002
  0.000   0.000  -0.034   0.000  -0.000   0.000  -0.000  -0.005   0.000   0.000  -0.037   0.003   0.000  -0.013   0.000  -0.000
  0.000   0.000   0.000  -0.019   0.000  -0.000   0.000   0.000  -0.015   0.000   0.000   0.000   0.000   0.000  -0.016   0.000
 total augmentation occupancy for first ion, spin component:           2
  2.517   0.000   0.000   0.005   0.000  -1.081   0.000   0.000  -0.001   0.000   0.000   0.000   0.000   0.000   0.002   0.000
  0.000   2.519  -0.005   0.000   0.004   0.000  -1.090   0.002   0.000  -0.001  -0.003   0.001  -0.046   0.001   0.000  -0.030
  0.000  -0.005   2.958   0.000   0.020   0.000   0.002  -1.277   0.000  -0.010   0.014   0.040   0.000  -0.086   0.000  -0.000
  0.005   0.000   0.000   2.512   0.000  -0.001   0.000   0.000  -1.084   0.000   0.000   0.000   0.000   0.000  -0.052   0.000
  0.000   0.004   0.020   0.000   2.882   0.000  -0.001  -0.009   0.000  -1.288   0.009  -0.003   0.004  -0.003   0.000   0.000
 -1.081   0.000   0.000  -0.001   0.000   0.252   0.000   0.000   0.002   0.000   0.000   0.000   0.000   0.000   0.001   0.000
  0.000  -1.090   0.002   0.000  -0.001   0.000   0.289  -0.002   0.000  -0.001   0.003  -0.000  -0.027  -0.001   0.000   0.020
  0.000   0.002  -1.277   0.000  -0.009   0.000  -0.002   0.380   0.000   0.010   0.038  -0.025   0.000   0.013   0.000   0.000
 -0.001   0.000   0.000  -1.084   0.000   0.002   0.000   0.000   0.285   0.000   0.000   0.000   0.000   0.000  -0.026   0.000
  0.000  -0.001  -0.010   0.000  -1.288   0.000  -0.001   0.010   0.000   0.384  -0.009   0.001  -0.003   0.002   0.000   0.000
  0.000  -0.003   0.014   0.000   0.009   0.000   0.003   0.038   0.000  -0.009  -0.272   0.101   0.002  -0.059   0.000  -0.000
  0.000   0.001   0.040   0.000  -0.003   0.000  -0.000  -0.025   0.000   0.001   0.101  -0.012   0.000   0.011   0.000  -0.000
  0.000  -0.046   0.000   0.000   0.004   0.000  -0.027   0.000   0.000  -0.003   0.002   0.000  -0.018   0.000   0.000   0.005
  0.000   0.001  -0.086   0.000  -0.003   0.000  -0.001   0.013   0.000   0.002  -0.059   0.011   0.000   0.002   0.000  -0.000
  0.002   0.000   0.000  -0.052   0.000   0.001   0.000   0.000  -0.026   0.000   0.000   0.000   0.000   0.000  -0.020   0.000
  0.000  -0.030  -0.000   0.000   0.000   0.000   0.020   0.000   0.000   0.000  -0.000  -0.000   0.005  -0.000   0.000  -0.000
  0.000   0.000  -0.047   0.000  -0.000   0.000  -0.000   0.028   0.000   0.000   0.003  -0.002  -0.000   0.004   0.000  -0.000
  0.000   0.000   0.000  -0.030   0.000  -0.000   0.000   0.000   0.020   0.000   0.000   0.000   0.000   0.000   0.005   0.000


------------------------ aborting loop because EDIFF is reached ----------------------------------------


    CHARGE:  cpu time    1.78: real time    1.78
    FORLOC:  cpu time    0.06: real time    0.07
    FORNL :  cpu time   14.12: real time   14.14
    STRESS:  cpu time   13.42: real time   13.43
    FORCOR:  cpu time    0.88: real time    0.88
    FORHAR:  cpu time    0.13: real time    0.13
    MIXING:  cpu time    0.02: real time    0.02

  FORCE on cell =-STRESS in cart. coord.  units (eV):
  Direction    XX          YY          ZZ          XY          YZ          ZX
  --------------------------------------------------------------------------------------
  Alpha Z   252.91199   252.91199   252.91199
  Ewald   14232.14857 14630.12922-19128.00384    -0.00000     2.14206    -0.00000
  Hartree 16354.89590 16634.54560-15364.40388    -0.00000     0.77419    -0.00000
  E(xc)    -527.97675  -527.36746  -527.91974    -0.00000     0.01352    -0.00000
  Local  -31688.41968-32355.74491 33414.51517     0.00000    -2.75005    -0.00000
  n-local  -156.72999  -159.75677  -154.80493    -0.00003     0.07399    -0.00002
  augment   427.36664   427.76838   423.75831     0.00000    -0.02751     0.00000
  Kinetic  1095.72673  1093.03919  1083.27391    -0.00004    -0.28420     0.00002
  Fock        0.00000     0.00000     0.00000     0.00000     0.00000     0.00000
  -------------------------------------------------------------------------------------
  Total     -10.07658    -4.47477    -0.67300     0.00000    -0.05801     0.00000
  in kB     -33.83564   -15.02559    -2.25983     0.00000    -0.19480     0.00000
  external pressure =      -17.04 kB  Pullay stress =        0.00 kB


 VOLUME and BASIS-vectors are now :
 -----------------------------------------------------------------------------
  energy-cutoff  :      350.00
  volume of cell :      477.14
      direct lattice vectors                 reciprocal lattice vectors
     5.640000000  0.000000000  0.000000000     0.177304965  0.000000000  0.000000000
     0.000000000  5.640000000  0.000000000     0.000000000  0.177304965  0.000000000
     0.000000000  0.000000000 15.000000000     0.000000000  0.000000000  0.066666667

  length of vectors
     5.640000000  5.640000000 15.000000000     0.177304965  0.177304965  0.066666667


 FORCES acting on ions
    electron-ion (+dipol)            ewald-force                    non-local-force                 convergence-correction
 -----------------------------------------------------------------------------------------------
   -.279E-13 0.177E+01 0.106E+04   0.443E-13 -.179E+01 -.105E+04   0.000E+00 -.511E-01 -.607E+01   -.598E-14 0.229E-02 0.108E-01
   0.328E-12 0.431E+01 0.106E+04   0.371E-13 -.441E+01 -.105E+04   0.000E+00 0.626E-01 -.630E+01   -.205E-13 0.195E-02 0.127E-01
   -.220E-13 -.173E+01 0.106E+04   0.447E-13 0.176E+01 -.105E+04   0.000E+00 0.483E-01 -.607E+01   -.102E-13 -.238E-02 0.549E-02
   0.320E-12 -.429E+01 0.106E+04   0.485E-13 0.439E+01 -.105E+04   0.000E+00 -.661E-01 -.629E+01   -.159E-13 -.233E-02 0.223E-02
   0.118E+02 0.358E-01 0.175E+03   -.123E+02 -.188E-01 -.175E+03   0.282E+00 -.174E-02 -.343E+00   -.175E-02 -.103E-01 -.234E-02
   -.118E+02 0.358E-01 0.175E+03   0.123E+02 -.188E-01 -.175E+03   -.282E+00 -.174E-02 -.343E+00   0.175E-02 -.103E-01 -.234E-02
   -.870E+01 -.357E+00 0.155E+03   0.839E+01 0.357E+00 -.155E+03   0.304E+00 -.416E-02 -.260E+00   -.200E-02 0.108E-01 0.178E-02
   0.870E+01 -.357E+00 0.155E+03   -.839E+01 0.357E+00 -.155E+03   -.304E+00 -.416E-02 -.260E+00   0.200E-02 0.108E-01 0.178E-02
   -.251E-13 0.750E+01 -.676E+03   -.423E-13 -.756E+01 0.673E+03   0.000E+00 0.519E-01 0.347E+01   0.260E-13 0.509E-02 -.252E-01
   0.306E-12 0.391E+02 -.775E+03   0.312E-13 -.383E+02 0.768E+03   0.000E+00 -.878E+00 0.694E+01   -.121E-13 0.333E-01 -.374E-02
   -.242E-13 -.570E+01 -.675E+03   -.180E-13 0.584E+01 0.672E+03   0.000E+00 -.117E+00 0.345E+01   0.264E-13 -.221E-01 -.519E-02
   0.308E-12 -.389E+02 -.775E+03   0.701E-13 0.380E+02 0.768E+03   0.000E+00 0.851E+00 0.699E+01   -.135E-13 0.175E-01 -.351E-01
   -.377E-13 0.157E+01 -.993E+03   -.379E-14 -.157E+01 0.995E+03   0.000E+00 -.182E-01 -.190E+01   0.716E-14 0.152E-01 -.141E-01
   -.147E-13 -.291E+01 -.993E+03   -.711E-14 0.295E+01 0.995E+03   0.000E+00 -.482E-01 -.190E+01   0.789E-14 0.119E-01 -.503E-02
 -----------------------------------------------------------------------------------------------
   0.238E-11 0.128E+00 0.896E+01   0.168E-14 -.369E-13 -.568E-12   0.000E+00 -.177E+00 -.890E+01   0.442E-14 0.614E-01 -.584E-01
 
 
 POSITION                                       TOTAL-FORCE (eV/Angst)
 -----------------------------------------------------------------------------------
      0.00000      0.00000      0.00000         0.000000     -0.072960      0.017214
      2.82000      0.00000      0.00000         0.000000     -0.037142      0.074147
      0.00000      2.82000      0.00000         0.000000      0.068487      0.013451
      2.82000      2.82000      0.00000         0.000000      0.034024      0.075996
      1.41000      1.41000      1.41000        -0.245124      0.004066     -0.129058
      4.23000      1.41000      1.41000         0.245124      0.004066     -0.129058
      1.41000      4.23000      1.41000        -0.011429      0.006557      0.036373
      4.23000      4.23000      1.41000         0.011429      0.006557      0.036373
      0.00000     -0.00253      2.94605         0.000000     -0.002383     -0.000209
      2.82000      0.09414      2.83886         0.000000     -0.005652      0.001772
      0.00000      2.82987      2.94229         0.000000     -0.000663      0.002245
      2.82000      2.72726      2.83969         0.000000     -0.000784      0.001714
      0.00000      0.03097      5.13620         0.000000     -0.002838     -0.001933
      0.00000      2.85029      5.13134         0.000000     -0.001337      0.000973
 -----------------------------------------------------------------------------------
    total drift:                                0.000000      0.012651      0.003271


--------------------------------------------------------------------------------------------------------



  FREE ENERGIE OF THE ION-ELECTRON SYSTEM (eV)
  ---------------------------------------------------
  free  energy   TOTEN  =       -95.89664838 eV

  energy  without entropy=      -95.90089293  energy(sigma->0) =      -95.89770952
 
 d Force = 0.2512585E-04[-0.691E-05, 0.572E-04]  d Energy = 0.2610166E-04-0.976E-06
 d Force =-0.1545903E+01[-0.155E+01,-0.155E+01]  d Ewald  =-0.1545903E+01 0.567E-07


--------------------------------------------------------------------------------------------------------


    POTLOK:  cpu time    0.96: real time    0.96


--------------------------------------------------------------------------------------------------------


 Conjugate gradient step on ions:
 trial-energy change:   -0.000026  1 .order   -0.000025   -0.000057    0.000007
  (g-gl).g = 0.314E-04      g.g   = 0.243E-04  gl.gl    = 0.800E-04
 g(Force)  = 0.243E-04   g(Stress)= 0.000E+00 ortho     =-0.139E-05
 gamma     =   0.39290
 trial     =   2.40199
 opt step  =   2.14301  (harmonic =   2.14301) maximal distance =0.00150669
 next E    =   -95.896648   (d E  =  -0.00003)


--------------------------------------------------------------------------------------------------------


  
 reached required accuracy - stopping structural energy minimisation
     LOOP+:  cpu time  126.00: real time  126.16
    4ORBIT:  cpu time    0.00: real time    0.00

 total amount of memory used by VASP on root node   163898. kBytes
========================================================================

   base      :      30000. kBytes
   nonl-proj :       9781. kBytes
   fftplans  :      15148. kBytes
   grid      :      39940. kBytes
   one-center:        435. kBytes
   wavefun   :      68594. kBytes
 
  
  
 General timing and accounting informations for this job:
 ========================================================
  
                  Total CPU time used (sec):    11816.956
                            User time (sec):    11811.124
                          System time (sec):        5.832
                         Elapsed time (sec):    11832.538
  
                   Maximum memory used (kb):      340296.
                   Average memory used (kb):           0.
  
                          Minor page faults:      1807022
                          Major page faults:            0
                 Voluntary context switches:           11
