<?xml version="1.0" encoding="ISO-8859-1"?>
<modeling>
 <generator>
  <i name="program" type="string">vasp </i>
  <i name="version" type="string">5.3.3  </i>
  <i name="subversion" type="string">18Dez12 (build Sep  7 2015 22:32:56) complex                          parallel </i>
  <i name="platform" type="string">LinuxIFC </i>
  <i name="date" type="string">2022 12 08 </i>
  <i name="time" type="string">17:35:00 </i>
 </generator>
 <incar>
  <i type="string" name="SYSTEM"> Crystal</i>
  <i type="int" name="ISTART">     0</i>
  <i type="string" name="PREC">normal</i>
  <i type="string" name="ALGO"> fast</i>
  <i type="int" name="NSIM">     4</i>
  <i type="int" name="ISPIN">     2</i>
  <i type="int" name="ICHARG">     2</i>
  <i type="int" name="NELMDL">   -10</i>
  <i type="int" name="NELMIN">     4</i>
  <i type="int" name="IBRION">     2</i>
  <i name="EDIFF">      0.00010000</i>
  <i name="EDIFFG">     -0.01000000</i>
  <i type="int" name="NSW">   300</i>
  <i name="ENCUT">    350.00000000</i>
  <i type="logical" name="LREAL"> F  </i>
  <i type="int" name="ISMEAR">     2</i>
  <i name="SIGMA">      0.10000000</i>
  <i type="logical" name="LWAVE"> F  </i>
  <i type="logical" name="LCHARG"> F  </i>
 </incar>
 <kpoints>
  <generation param="Gamma">
   <v type="int" name="divisions">       2        2        1 </v>
   <v name="usershift">      0.00000000       0.00000000       0.00000000 </v>
   <v name="genvec1">      0.50000000       0.00000000       0.00000000 </v>
   <v name="genvec2">      0.00000000       0.50000000       0.00000000 </v>
   <v name="genvec3">      0.00000000       0.00000000       1.00000000 </v>
   <v name="shift">      0.00000000       0.00000000       0.00000000 </v>
  </generation>
  <varray name="kpointlist" >
   <v>       0.00000000       0.00000000       0.00000000 </v>
   <v>       0.50000000       0.00000000       0.00000000 </v>
   <v>       0.00000000       0.50000000       0.00000000 </v>
   <v>       0.50000000       0.50000000       0.00000000 </v>
  </varray>
  <varray name="weights" >
   <v>       0.25000000 </v>
   <v>       0.25000000 </v>
   <v>       0.25000000 </v>
   <v>       0.25000000 </v>
  </varray>
 </kpoints>
 <parameters>
  <separator name="general" >
   <i type="string" name="SYSTEM">Crystal</i>
   <i type="logical" name="LCOMPAT"> F  </i>
  </separator>
  <separator name="electronic" >
   <i type="string" name="PREC">normal</i>
   <i name="ENMAX">    350.00000000</i>
   <i name="ENAUG">    511.36800000</i>
   <i name="EDIFF">      0.00010000</i>
   <i type="int" name="IALGO">    68</i>
   <i type="int" name="IWAVPR">    11</i>
   <i type="int" name="NBANDS">    73</i>
   <i name="NELECT">    110.00000000</i>
   <i type="int" name="TURBO">     0</i>
   <i type="int" name="IRESTART">     0</i>
   <i type="int" name="NREBOOT">     0</i>
   <i type="int" name="NMIN">     0</i>
   <i name="EREF">      0.00000000</i>
   <separator name="electronic smearing" >
    <i type="int" name="ISMEAR">     2</i>
    <i name="SIGMA">      0.10000000</i>
    <i name="KSPACING">      0.50000000</i>
    <i type="logical" name="KGAMMA"> T  </i>
   </separator>
   <separator name="electronic projectors" >
    <i type="logical" name="LREAL"> F  </i>
    <v name="ROPT">      0.00000000      0.00000000</v>
    <i type="int" name="LMAXPAW">  -100</i>
    <i type="int" name="LMAXMIX">     2</i>
    <i type="logical" name="NLSPLINE"> F  </i>
   </separator>
   <separator name="electronic startup" >
    <i type="int" name="ISTART">     0</i>
    <i type="int" name="ICHARG">     2</i>
    <i type="int" name="INIWAV">     1</i>
   </separator>
   <separator name="electronic spin" >
    <i type="int" name="ISPIN">     2</i>
    <i type="logical" name="LNONCOLLINEAR"> F  </i>
    <v name="MAGMOM">      1.00000000      1.00000000      1.00000000      1.00000000      1.00000000      1.00000000      1.00000000      1.00000000      1.00000000      1.00000000      1.00000000      1.00000000      1.00000000      1.00000000</v>
    <i name="NUPDOWN">     -1.00000000</i>
    <i type="logical" name="LSORBIT"> F  </i>
    <v name="SAXIS">      0.00000000      0.00000000      1.00000000</v>
    <i type="logical" name="LSPIRAL"> F  </i>
    <v name="QSPIRAL">      0.00000000      0.00000000      0.00000000</v>
    <i type="logical" name="LZEROZ"> F  </i>
   </separator>
   <separator name="electronic exchange-correlation" >
    <i type="logical" name="LASPH"> F  </i>
    <i type="logical" name="LMETAGGA"> F  </i>
   </separator>
   <separator name="electronic convergence" >
    <i type="int" name="NELM">    60</i>
    <i type="int" name="NELMDL">   -10</i>
    <i type="int" name="NELMIN">     4</i>
    <i name="ENINI">    350.00000000</i>
    <separator name="electronic convergence detail" >
     <i type="logical" name="LDIAG"> T  </i>
     <i type="logical" name="LSUBROT"> T  </i>
     <i name="WEIMIN">      0.00100000</i>
     <i name="EBREAK">      0.00000034</i>
     <i name="DEPER">      0.30000000</i>
     <i type="int" name="NRMM">     4</i>
     <i name="TIME">      0.40000000</i>
    </separator>
   </separator>
   <separator name="electronic mixer" >
    <i name="AMIX">      0.40000000</i>
    <i name="BMIX">      1.00000000</i>
    <i name="AMIN">      0.10000000</i>
    <i name="AMIX_MAG">      1.60000000</i>
    <i name="BMIX_MAG">      1.00000000</i>
    <separator name="electronic mixer details" >
     <i type="int" name="IMIX">     4</i>
     <i type="int" name="MAXMIX">   -45</i>
     <i name="WC">    100.00000000</i>
     <i type="int" name="INIMIX">     1</i>
     <i type="int" name="MIXPRE">     1</i>
     <i type="int" name="MREMOVE">     5</i>
    </separator>
   </separator>
   <separator name="electronic dipolcorrection" >
    <i type="logical" name="LDIPOL"> F  </i>
    <i type="logical" name="LMONO"> F  </i>
    <i type="int" name="IDIPOL">     0</i>
    <i name="EPSILON">      1.00000000</i>
    <v name="DIPOL">   -100.00000000   -100.00000000   -100.00000000</v>
    <i name="EFIELD">      0.00000000</i>
   </separator>
  </separator>
  <separator name="grids" >
   <i type="int" name="NGX">    28</i>
   <i type="int" name="NGY">    28</i>
   <i type="int" name="NGZ">    70</i>
   <i type="int" name="NGXF">    56</i>
   <i type="int" name="NGYF">    56</i>
   <i type="int" name="NGZF">   140</i>
   <i type="logical" name="ADDGRID"> F  </i>
  </separator>
  <separator name="ionic" >
   <i type="int" name="NSW">   300</i>
   <i type="int" name="IBRION">     2</i>
   <i type="int" name="ISIF">     2</i>
   <i name="PSTRESS">      0.00000000</i>
   <i name="EDIFFG">     -0.01000000</i>
   <i type="int" name="NFREE">     1</i>
   <i name="POTIM">      0.50000000</i>
   <i name="SMASS">     -3.00000000</i>
   <i name="SCALEE">      1.00000000</i>
  </separator>
  <separator name="ionic md" >
   <i name="TEBEG">      0.00010000</i>
   <i name="TEEND">      0.00010000</i>
   <i type="int" name="NBLOCK">     1</i>
   <i type="int" name="KBLOCK">   300</i>
   <i type="int" name="NPACO">   256</i>
   <i name="APACO">     16.00000000</i>
  </separator>
  <separator name="symmetry" >
   <i type="int" name="ISYM">     2</i>
   <i name="SYMPREC">      0.00001000</i>
  </separator>
  <separator name="dos" >
   <i type="logical" name="LORBIT"> F  </i>
   <v name="RWIGS">     -1.00000000     -1.00000000</v>
   <i type="int" name="NEDOS">   301</i>
   <i name="EMIN">     10.00000000</i>
   <i name="EMAX">    -10.00000000</i>
   <i name="EFERMI">      0.00000000</i>
  </separator>
  <separator name="writing" >
   <i type="int" name="NWRITE">     2</i>
   <i type="logical" name="LWAVE"> F  </i>
   <i type="logical" name="LCHARG"> F  </i>
   <i type="logical" name="LPARD"> F  </i>
   <i type="logical" name="LVTOT"> F  </i>
   <i type="logical" name="LVHAR"> F  </i>
   <i type="logical" name="LELF"> F  </i>
   <i type="logical" name="LOPTICS"> F  </i>
   <v name="STM">      0.00000000      0.00000000      0.00000000      0.00000000      0.00000000      0.00000000      0.00000000</v>
  </separator>
  <separator name="performance" >
   <i type="int" name="NPAR">     1</i>
   <i type="int" name="NSIM">     4</i>
   <i type="int" name="NBLK">    -1</i>
   <i type="logical" name="LPLANE"> T  </i>
   <i type="logical" name="LSCALAPACK"> F  </i>
   <i type="logical" name="LSCAAWARE"> F  </i>
   <i type="logical" name="LSCALU"> F  </i>
   <i type="logical" name="LASYNC"> F  </i>
   <i type="logical" name="LORBITALREAL"> F  </i>
  </separator>
  <separator name="miscellaneous" >
   <i type="int" name="IDIOT">     3</i>
   <i type="logical" name="LMUSIC"> F  </i>
   <v name="POMASS">     55.84700000     35.45300000</v>
   <v name="DARWINR">      0.00000000      0.00000000</v>
   <v name="DARWINV">      1.00000000      1.00000000</v>
   <i type="logical" name="LCORR"> T  </i>
  </separator>
  <i type="logical" name="GGA_COMPAT"> T  </i>
  <i type="logical" name="LBERRY"> F  </i>
  <i type="int" name="ICORELEVEL">     0</i>
  <i type="logical" name="LDAU"> F  </i>
  <i type="int" name="I_CONSTRAINED_M">     0</i>
  <separator name="electronic exchange-correlation" >
   <i type="string" name="GGA">--</i>
   <i type="int" name="VOSKOWN">     0</i>
   <i type="logical" name="LHFCALC"> F  </i>
   <i type="string" name="PRECFOCK"></i>
   <i type="logical" name="LSYMGRAD"> F  </i>
   <i type="logical" name="LHFONE"> F  </i>
   <i type="logical" name="LRHFCALC"> F  </i>
   <i type="logical" name="LTHOMAS"> F  </i>
   <i type="logical" name="LMODELHF"> F  </i>
   <i name="ENCUT4O">     -1.00000000</i>
   <i type="int" name="EXXOEP">     0</i>
   <i type="int" name="FOURORBIT">     0</i>
   <i name="AEXX">      0.00000000</i>
   <i name="HFALPHA">      0.00000000</i>
   <i name="MCALPHA">      0.00000000</i>
   <i name="ALDAX">      1.00000000</i>
   <i name="AGGAX">      1.00000000</i>
   <i name="ALDAC">      1.00000000</i>
   <i name="AGGAC">      1.00000000</i>
   <i type="int" name="NKREDX">     1</i>
   <i type="int" name="NKREDY">     1</i>
   <i type="int" name="NKREDZ">     1</i>
   <i type="logical" name="SHIFTRED"> F  </i>
   <i type="logical" name="ODDONLY"> F  </i>
   <i type="logical" name="EVENONLY"> F  </i>
   <i type="int" name="LMAXFOCK">     0</i>
   <i type="int" name="NMAXFOCKAE">     0</i>
   <i type="logical" name="LFOCKAEDFT"> F  </i>
   <i name="HFSCREEN">      0.00000000</i>
   <i name="HFSCREENC">      0.00000000</i>
   <i type="int" name="NBANDSGWLOW">     0</i>
  </separator>
  <separator name="vdW DFT" >
   <i type="logical" name="LUSE_VDW"> F  </i>
   <i name="Zab_VDW">     -0.84910000</i>
   <i name="PARAM1">      0.12340000</i>
   <i name="PARAM2">      1.00000000</i>
   <i name="PARAM3">      0.00000000</i>
  </separator>
  <separator name="model GW" >
   <i type="int" name="MODEL_GW">     0</i>
   <i name="MODEL_EPS0">     20.44902857</i>
   <i name="MODEL_ALPHA">      1.00000000</i>
  </separator>
  <separator name="linear response parameters" >
   <i type="logical" name="LEPSILON"> F  </i>
   <i type="logical" name="LRPA"> F  </i>
   <i type="logical" name="LNABLA"> F  </i>
   <i type="logical" name="LVEL"> F  </i>
   <i type="int" name="KINTER">     0</i>
   <i name="CSHIFT">      0.10000000</i>
   <i name="OMEGAMAX">     -1.00000000</i>
   <i name="DEG_THRESHOLD">      0.00200000</i>
  </separator>
  <separator name="orbital magnetization" >
   <i type="logical" name="NUCIND"> F  </i>
   <v name="MAGPOS">      0.00000000      0.00000000      0.00000000</v>
   <i type="logical" name="LNICSALL"> T  </i>
   <i type="logical" name="ORBITALMAG"> F  </i>
   <i type="logical" name="LMAGBLOCH"> F  </i>
   <i type="logical" name="LCHIMAG"> F  </i>
   <i type="logical" name="LGAUGE"> T  </i>
   <i type="int" name="MAGATOM">     0</i>
   <v name="MAGDIPOL">      0.00000000      0.00000000      0.00000000</v>
   <v name="AVECCONST">      0.00000000      0.00000000      0.00000000</v>
  </separator>
  <separator name="response functions" >
   <i type="logical" name="LADDER"> F  </i>
   <i type="logical" name="LFXC"> F  </i>
   <i type="logical" name="LHARTREE"> T  </i>
   <i type="int" name="IBSE">     0</i>
   <i type="logical" name="LTCTE"> F  </i>
   <i type="logical" name="LTETE"> F  </i>
   <i type="logical" name="LTRIPLET"> F  </i>
   <i type="logical" name="LFXCEPS"> F  </i>
   <i type="logical" name="L2ORDER"> F  </i>
   <i type="logical" name="LUSEW"> F  </i>
   <i name="ENCUTGW">     -2.00000000</i>
   <i name="ENCUTGWSOFT">     -2.00000000</i>
   <i name="ENCUTLF">     -1.00000000</i>
   <i type="int" name="LMAXMP2">    -1</i>
   <i name="SCISSOR">      0.00000000</i>
   <i type="int" name="NOMEGA">     0</i>
   <i type="int" name="NOMEGAR">     0</i>
   <i type="int" name="NBANDSGW">    -1</i>
   <i type="int" name="NBANDSO">    -1</i>
   <i type="int" name="NBANDSV">    -1</i>
   <i type="int" name="NELM">     1</i>
   <i type="int" name="DIM">     3</i>
   <i type="int" name="ANTIRES">     0</i>
   <i name="OMEGAMAX">    -30.00000000</i>
   <i name="OMEGATL">   -200.00000000</i>
   <i type="int" name="OMEGAGRID">     0</i>
   <i name="CSHIFT">     -0.10000000</i>
   <i type="logical" name="SELFENERGY"> F  </i>
   <i type="logical" name="LSPECTRAL"> F  </i>
   <i type="logical" name="ODDONLYGW"> F  </i>
   <i type="logical" name="EVENONLYGW"> F  </i>
   <i type="int" name="NKREDLFX">     1</i>
   <i type="int" name="NKREDLFY">     1</i>
   <i type="int" name="NKREDLFZ">     1</i>
   <i type="int" name="MAXMEM">  1800</i>
   <i type="int" name="TELESCOPE">     0</i>
  </separator>
 </parameters>
 <atominfo>
  <atoms>      14 </atoms>
  <types>       2 </types>
  <array name="atoms" >
   <dimension dim="1">ion</dimension>
   <field type="string">element</field>
   <field type="int">atomtype</field>
   <set>
    <rc><c>Fe</c><c>   1</c></rc>
    <rc><c>Fe</c><c>   1</c></rc>
    <rc><c>Fe</c><c>   1</c></rc>
    <rc><c>Fe</c><c>   1</c></rc>
    <rc><c>Fe</c><c>   1</c></rc>
    <rc><c>Fe</c><c>   1</c></rc>
    <rc><c>Fe</c><c>   1</c></rc>
    <rc><c>Fe</c><c>   1</c></rc>
    <rc><c>Fe</c><c>   1</c></rc>
    <rc><c>Fe</c><c>   1</c></rc>
    <rc><c>Fe</c><c>   1</c></rc>
    <rc><c>Fe</c><c>   1</c></rc>
    <rc><c>Cl</c><c>   2</c></rc>
    <rc><c>Cl</c><c>   2</c></rc>
   </set>
  </array>
  <array name="atomtypes" >
   <dimension dim="1">type</dimension>
   <field type="int">atomspertype</field>
   <field type="string">element</field>
   <field>mass</field>
   <field>valence</field>
   <field type="string">pseudopotential</field>
   <set>
    <rc><c>  12</c><c>Fe</c><c>     55.84700000</c><c>      8.00000000</c><c>  PAW_PBE Fe 06Sep2000                  </c></rc>
    <rc><c>   2</c><c>Cl</c><c>     35.45300000</c><c>      7.00000000</c><c>  PAW_PBE Cl 06Sep2000                  </c></rc>
   </set>
  </array>
 </atominfo>
 <structure name="initialpos" >
  <crystal>
   <varray name="basis" >
    <v>       5.64000000       0.00000000       0.00000000 </v>
    <v>       0.00000000       5.64000000       0.00000000 </v>
    <v>       0.00000000       0.00000000      15.00000000 </v>
   </varray>
   <i name="volume">    477.14400000 </i>
   <varray name="rec_basis" >
    <v>       0.17730496       0.00000000       0.00000000 </v>
    <v>       0.00000000       0.17730496       0.00000000 </v>
    <v>       0.00000000       0.00000000       0.06666667 </v>
   </varray>
  </crystal>
  <varray name="positions" >
   <v>       0.00000000       0.00000000       0.00000000 </v>
   <v>       0.50000000       0.00000000       0.00000000 </v>
   <v>       0.00000000       0.50000000       0.00000000 </v>
   <v>       0.50000000       0.50000000       0.00000000 </v>
   <v>       0.25000000       0.25000000       0.09400000 </v>
   <v>       0.75000000       0.25000000       0.09400000 </v>
   <v>       0.25000000       0.75000000       0.09400000 </v>
   <v>       0.75000000       0.75000000       0.09400000 </v>
   <v>       0.00000000       0.00000000       0.18800000 </v>
   <v>       0.50000000       0.00000000       0.18800000 </v>
   <v>       0.00000000       0.50000000       0.18800000 </v>
   <v>       0.50000000       0.50000000       0.18800000 </v>
   <v>       0.00000000       0.00000000       0.35466667 </v>
   <v>       0.00000000       0.35283688       0.35466667 </v>
  </varray>
  <varray name="selective"  type="logical" >
   <v type="logical" >  F  F  F </v>
   <v type="logical" >  F  F  F </v>
   <v type="logical" >  F  F  F </v>
   <v type="logical" >  F  F  F </v>
   <v type="logical" >  F  F  F </v>
   <v type="logical" >  F  F  F </v>
   <v type="logical" >  F  F  F </v>
   <v type="logical" >  F  F  F </v>
   <v type="logical" >  T  T  T </v>
   <v type="logical" >  T  T  T </v>
   <v type="logical" >  T  T  T </v>
   <v type="logical" >  T  T  T </v>
   <v type="logical" >  T  T  T </v>
   <v type="logical" >  T  T  T </v>
  </varray>
  <nose>
   <v>      -3.00000000       0.00000000       0.00010000       0.00010000 </v>
  </nose>
 </structure>
 <calculation>
  <scstep>
   <time name="dav">   22.64   22.69</time>
   <time name="total">   23.61   23.65</time>
   <energy>
    <i name="alphaZ">    252.91199290 </i>
    <i name="ewald">   9621.20448307 </i>
    <i name="hartreedc"> -17546.27633317 </i>
    <i name="XCdc">     81.67945195 </i>
    <i name="pawpsdc">   7307.10104293 </i>
    <i name="pawaedc">  -7399.77233888 </i>
    <i name="eentropy">      0.00127556 </i>
    <i name="bandstr">    543.50775758 </i>
    <i name="atom">   7950.96879731 </i>
    <i name="e_fr_energy">    811.32612923 </i>
    <i name="e_wo_entrp">    811.32485368 </i>
    <i name="e_0_energy">    811.32581034 </i>
   </energy>
  </scstep>
  <scstep>
   <time name="dav">   23.06   23.09</time>
   <time name="total">   23.06   23.10</time>
   <energy>
    <i name="e_fr_energy">     -1.95965735 </i>
    <i name="e_wo_entrp">     -1.96081700 </i>
    <i name="e_0_energy">     -1.95994726 </i>
   </energy>
  </scstep>
  <scstep>
   <time name="dav">   34.13   34.18</time>
   <time name="total">   34.14   34.18</time>
   <energy>
    <i name="e_fr_energy">    -90.60906052 </i>
    <i name="e_wo_entrp">    -90.62057460 </i>
    <i name="e_0_energy">    -90.61193904 </i>
   </energy>
  </scstep>
  <scstep>
   <time name="dav">   35.38   35.44</time>
   <time name="total">   35.39   35.45</time>
   <energy>
    <i name="e_fr_energy">   -101.20551752 </i>
    <i name="e_wo_entrp">   -101.18339388 </i>
    <i name="e_0_energy">   -101.19998661 </i>
   </energy>
  </scstep>
  <scstep>
   <time name="dav">   34.97   35.02</time>
   <time name="total">   34.98   35.03</time>
   <energy>
    <i name="e_fr_energy">   -101.95232666 </i>
    <i name="e_wo_entrp">   -101.92762910 </i>
    <i name="e_0_energy">   -101.94615227 </i>
   </energy>
  </scstep>
  <scstep>
   <time name="dav">   33.54   33.59</time>
   <time name="total">   33.55   33.59</time>
   <energy>
    <i name="e_fr_energy">   -102.05133319 </i>
    <i name="e_wo_entrp">   -102.03037200 </i>
    <i name="e_0_energy">   -102.04609289 </i>
   </energy>
  </scstep>
  <scstep>
   <time name="dav">   36.44   36.50</time>
   <time name="total">   36.45   36.50</time>
   <energy>
    <i name="e_fr_energy">   -102.06017063 </i>
    <i name="e_wo_entrp">   -102.03908978 </i>
    <i name="e_0_energy">   -102.05490042 </i>
   </energy>
  </scstep>
  <scstep>
   <time name="dav">   26.07   26.10</time>
   <time name="total">   26.07   26.11</time>
   <energy>
    <i name="e_fr_energy">   -102.06099649 </i>
    <i name="e_wo_entrp">   -102.03989447 </i>
    <i name="e_0_energy">   -102.05572098 </i>
   </energy>
  </scstep>
  <scstep>
   <time name="dav">   23.20   23.24</time>
   <time name="total">   23.21   23.24</time>
   <energy>
    <i name="e_fr_energy">   -102.06110292 </i>
    <i name="e_wo_entrp">   -102.03998198 </i>
    <i name="e_0_energy">   -102.05582268 </i>
   </energy>
  </scstep>
  <scstep>
   <time name="dav">   22.40   22.44</time>
   <time name="total">   24.18   24.22</time>
   <energy>
    <i name="e_fr_energy">   -102.06111918 </i>
    <i name="e_wo_entrp">   -102.03999356 </i>
    <i name="e_0_energy">   -102.05583778 </i>
   </energy>
  </scstep>
  <scstep>
   <time name="diag">    3.83    3.83</time>
   <time name="diis">   19.58   19.61</time>
   <time name="orth">    0.88    0.88</time>
   <time name="total">   27.37   27.41</time>
   <energy>
    <i name="e_fr_energy">   -115.34898301 </i>
    <i name="e_wo_entrp">   -115.34888404 </i>
    <i name="e_0_energy">   -115.34895827 </i>
   </energy>
  </scstep>
  <scstep>
   <time name="diag">    4.73    4.74</time>
   <time name="diis">   16.68   16.71</time>
   <time name="orth">    0.44    0.44</time>
   <time name="total">   24.66   24.70</time>
   <energy>
    <i name="e_fr_energy">   -108.62008950 </i>
    <i name="e_wo_entrp">   -108.59642036 </i>
    <i name="e_0_energy">   -108.61417222 </i>
   </energy>
  </scstep>
  <scstep>
   <time name="diag">    6.44    6.45</time>
   <time name="diis">   20.86   20.89</time>
   <time name="orth">    0.44    0.44</time>
   <time name="total">   30.91   30.96</time>
   <energy>
    <i name="e_fr_energy">    -93.97251382 </i>
    <i name="e_wo_entrp">    -93.97748112 </i>
    <i name="e_0_energy">    -93.97375564 </i>
   </energy>
  </scstep>
  <scstep>
   <time name="diag">    3.82    3.83</time>
   <time name="diis">   22.34   22.37</time>
   <time name="orth">    0.44    0.44</time>
   <time name="total">   29.62   29.66</time>
   <energy>
    <i name="e_fr_energy">    -96.55126783 </i>
    <i name="e_wo_entrp">    -96.55059603 </i>
    <i name="e_0_energy">    -96.55109988 </i>
   </energy>
  </scstep>
  <scstep>
   <time name="diag">    3.86    3.87</time>
   <time name="diis">   16.29   16.31</time>
   <time name="orth">    0.90    0.91</time>
   <time name="total">   25.27   25.30</time>
   <energy>
    <i name="e_fr_energy">    -95.39573625 </i>
    <i name="e_wo_entrp">    -95.39476278 </i>
    <i name="e_0_energy">    -95.39549289 </i>
   </energy>
  </scstep>
  <scstep>
   <time name="diag">    4.89    4.89</time>
   <time name="diis">   22.16   22.20</time>
   <time name="orth">    0.99    0.99</time>
   <time name="total">   31.95   32.00</time>
   <energy>
    <i name="e_fr_energy">    -89.48101382 </i>
    <i name="e_wo_entrp">    -89.47627653 </i>
    <i name="e_0_energy">    -89.47982950 </i>
   </energy>
  </scstep>
  <scstep>
   <time name="diag">    4.45    4.45</time>
   <time name="diis">   24.23   24.28</time>
   <time name="orth">    0.44    0.44</time>
   <time name="total">   31.94   31.99</time>
   <energy>
    <i name="e_fr_energy">    -89.70105571 </i>
    <i name="e_wo_entrp">    -89.70460761 </i>
    <i name="e_0_energy">    -89.70194368 </i>
   </energy>
  </scstep>
  <scstep>
   <time name="diag">    4.27    4.28</time>
   <time name="diis">   18.88   18.91</time>
   <time name="orth">    0.88    0.88</time>
   <time name="total">   26.80   26.84</time>
   <energy>
    <i name="e_fr_energy">    -88.47432904 </i>
    <i name="e_wo_entrp">    -88.47789771 </i>
    <i name="e_0_energy">    -88.47522120 </i>
   </energy>
  </scstep>
  <scstep>
   <time name="diag">    3.92    3.93</time>
   <time name="diis">   19.72   19.75</time>
   <time name="orth">    0.44    0.43</time>
   <time name="total">   26.85   26.88</time>
   <energy>
    <i name="e_fr_energy">    -88.67391101 </i>
    <i name="e_wo_entrp">    -88.67214271 </i>
    <i name="e_0_energy">    -88.67346894 </i>
   </energy>
  </scstep>
  <scstep>
   <time name="diag">    3.84    3.85</time>
   <time name="diis">   18.60   18.62</time>
   <time name="orth">    0.44    0.44</time>
   <time name="total">   25.62   25.66</time>
   <energy>
    <i name="e_fr_energy">    -88.69674436 </i>
    <i name="e_wo_entrp">    -88.69517698 </i>
    <i name="e_0_energy">    -88.69635252 </i>
   </energy>
  </scstep>
  <scstep>
   <time name="diag">    3.73    3.73</time>
   <time name="diis">   16.26   16.29</time>
   <time name="orth">    0.44    0.44</time>
   <time name="total">   23.16   23.20</time>
   <energy>
    <i name="e_fr_energy">    -88.61359874 </i>
    <i name="e_wo_entrp">    -88.61076079 </i>
    <i name="e_0_energy">    -88.61288925 </i>
   </energy>
  </scstep>
  <scstep>
   <time name="diag">    3.81    3.81</time>
   <time name="diis">   15.96   15.99</time>
   <time name="orth">    0.44    0.44</time>
   <time name="total">   22.98   23.01</time>
   <energy>
    <i name="e_fr_energy">    -88.24137788 </i>
    <i name="e_wo_entrp">    -88.24655827 </i>
    <i name="e_0_energy">    -88.24267298 </i>
   </energy>
  </scstep>
  <scstep>
   <time name="diag">    3.81    3.81</time>
   <time name="diis">   16.18   16.20</time>
   <time name="orth">    0.43    0.43</time>
   <time name="total">   23.14   23.17</time>
   <energy>
    <i name="e_fr_energy">    -87.56154527 </i>
    <i name="e_wo_entrp">    -87.56602897 </i>
    <i name="e_0_energy">    -87.56266620 </i>
   </energy>
  </scstep>
  <scstep>
   <time name="diag">    3.74    3.74</time>
   <time name="diis">   16.60   16.63</time>
   <time name="orth">    0.44    0.44</time>
   <time name="total">   23.53   23.56</time>
   <energy>
    <i name="e_fr_energy">    -87.44028130 </i>
    <i name="e_wo_entrp">    -87.42866604 </i>
    <i name="e_0_energy">    -87.43737749 </i>
   </energy>
  </scstep>
  <scstep>
   <time name="diag">    3.82    3.82</time>
   <time name="diis">   16.27   16.29</time>
   <time name="orth">    0.42    0.42</time>
   <time name="total">   23.20   23.24</time>
   <energy>
    <i name="e_fr_energy">    -86.89981524 </i>
    <i name="e_wo_entrp">    -86.90515128 </i>
    <i name="e_0_energy">    -86.90114925 </i>
   </energy>
  </scstep>
  <scstep>
   <time name="diag">    3.65    3.65</time>
   <time name="diis">   17.90   17.93</time>
   <time name="orth">    0.43    0.43</time>
   <time name="total">   24.68   24.72</time>
   <energy>
    <i name="e_fr_energy">    -86.75805487 </i>
    <i name="e_wo_entrp">    -86.76206189 </i>
    <i name="e_0_energy">    -86.75905663 </i>
   </energy>
  </scstep>
  <scstep>
   <time name="diag">    3.74    3.74</time>
   <time name="diis">   16.39   16.42</time>
   <time name="orth">    0.44    0.44</time>
   <time name="total">   23.34   23.37</time>
   <energy>
    <i name="e_fr_energy">    -86.83139340 </i>
    <i name="e_wo_entrp">    -86.82643550 </i>
    <i name="e_0_energy">    -86.83015393 </i>
   </energy>
  </scstep>
  <scstep>
   <time name="diag">    3.82    3.83</time>
   <time name="diis">   16.39   16.41</time>
   <time name="orth">    0.43    0.43</time>
   <time name="total">   23.40   23.44</time>
   <energy>
    <i name="e_fr_energy">    -87.56570922 </i>
    <i name="e_wo_entrp">    -87.55966915 </i>
    <i name="e_0_energy">    -87.56419921 </i>
   </energy>
  </scstep>
  <scstep>
   <time name="diag">    3.82    3.83</time>
   <time name="diis">   16.02   16.04</time>
   <time name="orth">    0.43    0.43</time>
   <time name="total">   23.04   23.07</time>
   <energy>
    <i name="e_fr_energy">    -89.46939255 </i>
    <i name="e_wo_entrp">    -89.46997278 </i>
    <i name="e_0_energy">    -89.46953761 </i>
   </energy>
  </scstep>
  <scstep>
   <time name="diag">    3.81    3.82</time>
   <time name="diis">   16.38   16.40</time>
   <time name="orth">    0.43    0.43</time>
   <time name="total">   23.37   23.41</time>
   <energy>
    <i name="e_fr_energy">    -90.18042331 </i>
    <i name="e_wo_entrp">    -90.17342792 </i>
    <i name="e_0_energy">    -90.17867447 </i>
   </energy>
  </scstep>
  <scstep>
   <time name="diag">    3.75    3.75</time>
   <time name="diis">   17.40   17.42</time>
   <time name="orth">    0.44    0.43</time>
   <time name="total">   24.34   24.38</time>
   <energy>
    <i name="e_fr_energy">    -90.31096229 </i>
    <i name="e_wo_entrp">    -90.30350857 </i>
    <i name="e_0_energy">    -90.30909886 </i>
   </energy>
  </scstep>
  <scstep>
   <time name="diag">    3.84    3.84</time>
   <time name="diis">   16.37   16.39</time>
   <time name="orth">    0.44    0.44</time>
   <time name="total">   23.45   23.48</time>
   <energy>
    <i name="e_fr_energy">    -90.81748414 </i>
    <i name="e_wo_entrp">    -90.80916401 </i>
    <i name="e_0_energy">    -90.81540411 </i>
   </energy>
  </scstep>
  <scstep>
   <time name="diag">    3.77    3.78</time>
   <time name="diis">   16.10   16.13</time>
   <time name="orth">    0.43    0.43</time>
   <time name="total">   23.06   23.09</time>
   <energy>
    <i name="e_fr_energy">    -91.77366747 </i>
    <i name="e_wo_entrp">    -91.76630902 </i>
    <i name="e_0_energy">    -91.77182786 </i>
   </energy>
  </scstep>
  <scstep>
   <time name="diag">    3.82    3.82</time>
   <time name="diis">   17.70   17.73</time>
   <time name="orth">    0.43    0.43</time>
   <time name="total">   24.67   24.70</time>
   <energy>
    <i name="e_fr_energy">    -92.20546534 </i>
    <i name="e_wo_entrp">    -92.19958646 </i>
    <i name="e_0_energy">    -92.20399562 </i>
   </energy>
  </scstep>
  <scstep>
   <time name="diag">    3.64    3.65</time>
   <time name="diis">   16.15   16.17</time>
   <time name="orth">    0.42    0.43</time>
   <time name="total">   22.95   22.98</time>
   <energy>
    <i name="e_fr_energy">    -92.51134531 </i>
    <i name="e_wo_entrp">    -92.50009942 </i>
    <i name="e_0_energy">    -92.50853384 </i>
   </energy>
  </scstep>
  <scstep>
   <time name="diag">    3.70    3.71</time>
   <time name="diis">   16.81   16.83</time>
   <time name="orth">    0.44    0.44</time>
   <time name="total">   23.72   23.75</time>
   <energy>
    <i name="e_fr_energy">    -92.81814184 </i>
    <i name="e_wo_entrp">    -92.80534902 </i>
    <i name="e_0_energy">    -92.81494364 </i>
   </energy>
  </scstep>
  <scstep>
   <time name="diag">    3.76    3.77</time>
   <time name="diis">   17.23   17.26</time>
   <time name="orth">    0.44    0.44</time>
   <time name="total">   24.25   24.28</time>
   <energy>
    <i name="e_fr_energy">    -92.98257250 </i>
    <i name="e_wo_entrp">    -92.97232895 </i>
    <i name="e_0_energy">    -92.98001161 </i>
   </energy>
  </scstep>
  <scstep>
   <time name="diag">    3.82    3.83</time>
   <time name="diis">   17.77   17.80</time>
   <time name="orth">    0.44    0.44</time>
   <time name="total">   24.86   24.90</time>
   <energy>
    <i name="e_fr_energy">    -93.05940442 </i>
    <i name="e_wo_entrp">    -93.05156530 </i>
    <i name="e_0_energy">    -93.05744464 </i>
   </energy>
  </scstep>
  <scstep>
   <time name="diag">    3.75    3.76</time>
   <time name="diis">   16.37   16.39</time>
   <time name="orth">    0.43    0.44</time>
   <time name="total">   23.39   23.42</time>
   <energy>
    <i name="e_fr_energy">    -93.13292938 </i>
    <i name="e_wo_entrp">    -93.12477352 </i>
    <i name="e_0_energy">    -93.13089041 </i>
   </energy>
  </scstep>
  <scstep>
   <time name="diag">    3.83    3.83</time>
   <time name="diis">   16.42   16.44</time>
   <time name="orth">    0.43    0.43</time>
   <time name="total">   23.49   23.53</time>
   <energy>
    <i name="e_fr_energy">    -93.25562847 </i>
    <i name="e_wo_entrp">    -93.24585788 </i>
    <i name="e_0_energy">    -93.25318582 </i>
   </energy>
  </scstep>
  <scstep>
   <time name="diag">    3.74    3.75</time>
   <time name="diis">   16.54   16.56</time>
   <time name="orth">    0.43    0.43</time>
   <time name="total">   23.52   23.55</time>
   <energy>
    <i name="e_fr_energy">    -93.34928872 </i>
    <i name="e_wo_entrp">    -93.33943299 </i>
    <i name="e_0_energy">    -93.34682479 </i>
   </energy>
  </scstep>
  <scstep>
   <time name="diag">    3.79    3.79</time>
   <time name="diis">   18.19   18.22</time>
   <time name="orth">    0.44    0.43</time>
   <time name="total">   25.23   25.26</time>
   <energy>
    <i name="e_fr_energy">    -93.38697304 </i>
    <i name="e_wo_entrp">    -93.37655852 </i>
    <i name="e_0_energy">    -93.38436941 </i>
   </energy>
  </scstep>
  <scstep>
   <time name="diag">    3.72    3.73</time>
   <time name="diis">   15.18   15.20</time>
   <time name="orth">    0.43    0.43</time>
   <time name="total">   22.12   22.15</time>
   <energy>
    <i name="e_fr_energy">    -93.39956477 </i>
    <i name="e_wo_entrp">    -93.38901142 </i>
    <i name="e_0_energy">    -93.39692643 </i>
   </energy>
  </scstep>
  <scstep>
   <time name="diag">    3.78    3.78</time>
   <time name="diis">   14.53   14.55</time>
   <time name="orth">    0.43    0.43</time>
   <time name="total">   21.54   21.57</time>
   <energy>
    <i name="e_fr_energy">    -93.41816362 </i>
    <i name="e_wo_entrp">    -93.40753332 </i>
    <i name="e_0_energy">    -93.41550604 </i>
   </energy>
  </scstep>
  <scstep>
   <time name="diag">    3.74    3.75</time>
   <time name="diis">   14.24   14.26</time>
   <time name="orth">    0.44    0.44</time>
   <time name="total">   21.26   21.29</time>
   <energy>
    <i name="e_fr_energy">    -93.42598878 </i>
    <i name="e_wo_entrp">    -93.41558468 </i>
    <i name="e_0_energy">    -93.42338775 </i>
   </energy>
  </scstep>
  <scstep>
   <time name="diag">    3.78    3.78</time>
   <time name="diis">   11.94   11.96</time>
   <time name="orth">    0.43    0.43</time>
   <time name="total">   18.97   19.00</time>
   <energy>
    <i name="e_fr_energy">    -93.42723201 </i>
    <i name="e_wo_entrp">    -93.41663627 </i>
    <i name="e_0_energy">    -93.42458308 </i>
   </energy>
  </scstep>
  <scstep>
   <time name="diag">    3.76    3.76</time>
   <time name="diis">   10.82   10.84</time>
   <time name="orth">    0.44    0.44</time>
   <time name="total">   17.87   17.90</time>
   <energy>
    <i name="e_fr_energy">    -93.42822313 </i>
    <i name="e_wo_entrp">    -93.41757240 </i>
    <i name="e_0_energy">    -93.42556045 </i>
   </energy>
  </scstep>
  <scstep>
   <time name="diag">    3.82    3.82</time>
   <time name="diis">   10.54   10.56</time>
   <time name="orth">    0.43    0.43</time>
   <time name="total">   17.64   17.66</time>
   <energy>
    <i name="e_fr_energy">    -93.42896084 </i>
    <i name="e_wo_entrp">    -93.41833409 </i>
    <i name="e_0_energy">    -93.42630416 </i>
   </energy>
  </scstep>
  <scstep>
   <time name="diag">    3.75    3.76</time>
   <time name="diis">   10.54   10.55</time>
   <time name="orth">    0.42    0.43</time>
   <time name="total">   17.54   17.56</time>
   <energy>
    <i name="e_fr_energy">    -93.43054604 </i>
    <i name="e_wo_entrp">    -93.41990907 </i>
    <i name="e_0_energy">    -93.42788680 </i>
   </energy>
  </scstep>
  <scstep>
   <time name="diag">    3.71    3.71</time>
   <time name="diis">   11.33   11.35</time>
   <time name="orth">    0.44    0.44</time>
   <time name="total">   18.34   18.36</time>
   <energy>
    <i name="e_fr_energy">    -93.43107596 </i>
    <i name="e_wo_entrp">    -93.42043438 </i>
    <i name="e_0_energy">    -93.42841556 </i>
   </energy>
  </scstep>
  <scstep>
   <time name="diag">    3.83    3.83</time>
   <time name="diis">   10.23   10.24</time>
   <time name="orth">    0.44    0.44</time>
   <time name="total">   15.47   15.49</time>
   <energy>
    <i name="alphaZ">    252.91199290 </i>
    <i name="ewald">   9621.20448307 </i>
    <i name="hartreedc"> -17526.07459013 </i>
    <i name="XCdc">     92.09137622 </i>
    <i name="pawpsdc">   9564.84089340 </i>
    <i name="pawaedc">  -9672.50923932 </i>
    <i name="eentropy">     -0.01058713 </i>
    <i name="bandstr">   -376.85427122 </i>
    <i name="atom">   7950.96879731 </i>
    <i name="e_fr_energy">    -93.43114490 </i>
    <i name="e_wo_entrp">    -93.42055777 </i>
    <i name="e_0_energy">    -93.42849812 </i>
   </energy>
  </scstep>
  <structure>
   <crystal>
    <varray name="basis" >
     <v>       5.64000000       0.00000000       0.00000000 </v>
     <v>       0.00000000       5.64000000       0.00000000 </v>
     <v>       0.00000000       0.00000000      15.00000000 </v>
    </varray>
    <i name="volume">    477.14400000 </i>
    <varray name="rec_basis" >
     <v>       0.17730496       0.00000000       0.00000000 </v>
     <v>       0.00000000       0.17730496       0.00000000 </v>
     <v>       0.00000000       0.00000000       0.06666667 </v>
    </varray>
   </crystal>
   <varray name="positions" >
    <v>       0.00000000       0.00000000       0.00000000 </v>
    <v>       0.50000000       0.00000000       0.00000000 </v>
    <v>       0.00000000       0.50000000       0.00000000 </v>
    <v>       0.50000000       0.50000000       0.00000000 </v>
    <v>       0.25000000       0.25000000       0.09400000 </v>
    <v>       0.75000000       0.25000000       0.09400000 </v>
    <v>       0.25000000       0.75000000       0.09400000 </v>
    <v>       0.75000000       0.75000000       0.09400000 </v>
    <v>       0.00000000       0.00000000       0.18800000 </v>
    <v>       0.50000000       0.00000000       0.18800000 </v>
    <v>       0.00000000       0.50000000       0.18800000 </v>
    <v>       0.50000000       0.50000000       0.18800000 </v>
    <v>       0.00000000       0.00000000       0.35466667 </v>
    <v>       0.00000000       0.35283688       0.35466667 </v>
   </varray>
  </structure>
  <varray name="forces" >
   <v>       0.00000000       0.00547058       0.12179876 </v>
   <v>       0.00000000       0.05846740       0.06069894 </v>
   <v>       0.00000000       0.01858692       0.01932444 </v>
   <v>       0.00000000      -0.02741340      -0.00319731 </v>
   <v>       0.03114627      -0.00727079      -0.17456547 </v>
   <v>      -0.03114627      -0.00727079      -0.17456547 </v>
   <v>      -0.00423476      -0.00547829      -0.17945290 </v>
   <v>       0.00423476      -0.00547829      -0.17945290 </v>
   <v>       0.00000000      -0.28962939       0.63558129 </v>
   <v>       0.00000000       0.04807060      -0.16242638 </v>
   <v>       0.00000000      -0.09180302       0.87947204 </v>
   <v>       0.00000000      -0.05156986      -0.14678476 </v>
   <v>       0.00000000      -5.43045258      -0.44977018 </v>
   <v>       0.00000000       5.78577093      -0.24666010 </v>
  </varray>
  <varray name="stress" >
   <v>     -34.39585187       0.00000000       0.00000000 </v>
   <v>       0.00000000      -4.94173108       2.60542896 </v>
   <v>       0.00000000       2.60542912      -6.03236198 </v>
  </varray>
  <energy>
   <i name="e_fr_energy">    -93.43114490 </i>
   <i name="e_wo_entrp">    -93.42849812 </i>
   <i name="e_0_energy">     -0.01058713 </i>
  </energy>
  <time name="totalsc"> 1301.55 1303.42</time>
 </calculation>
 <calculation>
  <scstep>
   <time name="dav">   22.10   22.13</time>
   <time name="total">   24.85   24.88</time>
   <energy>
    <i name="alphaZ">    252.91199290 </i>
    <i name="ewald">   9569.20159791 </i>
    <i name="hartreedc"> -17480.18728081 </i>
    <i name="XCdc">     91.49265453 </i>
    <i name="pawpsdc">   9564.81623777 </i>
    <i name="pawaedc">  -9672.48253552 </i>
    <i name="eentropy">     -0.01881346 </i>
    <i name="bandstr">   -370.54693326 </i>
    <i name="atom">   7950.96879731 </i>
    <i name="e_fr_energy">    -93.84428263 </i>
    <i name="e_wo_entrp">    -93.82546917 </i>
    <i name="e_0_energy">    -93.83957926 </i>
   </energy>
  </scstep>
  <scstep>
   <time name="diag">    3.80    3.80</time>
   <time name="diis">   16.09   16.11</time>
   <time name="orth">    0.43    0.43</time>
   <time name="total">   23.09   23.12</time>
   <energy>
    <i name="e_fr_energy">    -94.84708575 </i>
    <i name="e_wo_entrp">    -94.83437816 </i>
    <i name="e_0_energy">    -94.84390885 </i>
   </energy>
  </scstep>
  <scstep>
   <time name="diag">    3.75    3.75</time>
   <time name="diis">   17.44   17.47</time>
   <time name="orth">    0.43    0.43</time>
   <time name="total">   24.34   24.38</time>
   <energy>
    <i name="e_fr_energy">    -95.37019459 </i>
    <i name="e_wo_entrp">    -95.36122039 </i>
    <i name="e_0_energy">    -95.36795104 </i>
   </energy>
  </scstep>
  <scstep>
   <time name="diag">    3.79    3.79</time>
   <time name="diis">   16.25   16.27</time>
   <time name="orth">    0.43    0.43</time>
   <time name="total">   23.18   23.21</time>
   <energy>
    <i name="e_fr_energy">    -95.62912953 </i>
    <i name="e_wo_entrp">    -95.64080740 </i>
    <i name="e_0_energy">    -95.63204900 </i>
   </energy>
  </scstep>
  <scstep>
   <time name="diag">    3.76    3.76</time>
   <time name="diis">   16.67   16.69</time>
   <time name="orth">    0.43    0.44</time>
   <time name="total">   23.60   23.63</time>
   <energy>
    <i name="e_fr_energy">    -95.92653280 </i>
    <i name="e_wo_entrp">    -95.92650611 </i>
    <i name="e_0_energy">    -95.92652613 </i>
   </energy>
  </scstep>
  <scstep>
   <time name="diag">    3.78    3.78</time>
   <time name="diis">   16.35   16.37</time>
   <time name="orth">    0.44    0.44</time>
   <time name="total">   23.33   23.36</time>
   <energy>
    <i name="e_fr_energy">    -95.24328196 </i>
    <i name="e_wo_entrp">    -95.23592309 </i>
    <i name="e_0_energy">    -95.24144224 </i>
   </energy>
  </scstep>
  <scstep>
   <time name="diag">    3.73    3.73</time>
   <time name="diis">   16.33   16.35</time>
   <time name="orth">    0.44    0.44</time>
   <time name="total">   23.24   23.27</time>
   <energy>
    <i name="e_fr_energy">    -95.52454937 </i>
    <i name="e_wo_entrp">    -95.52642713 </i>
    <i name="e_0_energy">    -95.52501881 </i>
   </energy>
  </scstep>
  <scstep>
   <time name="diag">    3.83    3.83</time>
   <time name="diis">   16.30   16.32</time>
   <time name="orth">    0.42    0.43</time>
   <time name="total">   23.27   23.30</time>
   <energy>
    <i name="e_fr_energy">    -95.17017466 </i>
    <i name="e_wo_entrp">    -95.16369880 </i>
    <i name="e_0_energy">    -95.16855570 </i>
   </energy>
  </scstep>
  <scstep>
   <time name="diag">    3.65    3.65</time>
   <time name="diis">   16.13   16.15</time>
   <time name="orth">    0.44    0.44</time>
   <time name="total">   22.98   23.01</time>
   <energy>
    <i name="e_fr_energy">    -95.19476271 </i>
    <i name="e_wo_entrp">    -95.18552748 </i>
    <i name="e_0_energy">    -95.19245390 </i>
   </energy>
  </scstep>
  <scstep>
   <time name="diag">    3.77    3.77</time>
   <time name="diis">   16.30   16.32</time>
   <time name="orth">    0.44    0.44</time>
   <time name="total">   23.28   23.31</time>
   <energy>
    <i name="e_fr_energy">    -95.13861172 </i>
    <i name="e_wo_entrp">    -95.12618604 </i>
    <i name="e_0_energy">    -95.13550530 </i>
   </energy>
  </scstep>
  <scstep>
   <time name="diag">    3.82    3.83</time>
   <time name="diis">   16.30   16.33</time>
   <time name="orth">    0.42    0.43</time>
   <time name="total">   23.27   23.30</time>
   <energy>
    <i name="e_fr_energy">    -95.14426897 </i>
    <i name="e_wo_entrp">    -95.13185758 </i>
    <i name="e_0_energy">    -95.14116612 </i>
   </energy>
  </scstep>
  <scstep>
   <time name="diag">    3.69    3.69</time>
   <time name="diis">   16.30   16.32</time>
   <time name="orth">    0.43    0.43</time>
   <time name="total">   23.14   23.17</time>
   <energy>
    <i name="e_fr_energy">    -95.13669268 </i>
    <i name="e_wo_entrp">    -95.12431713 </i>
    <i name="e_0_energy">    -95.13359879 </i>
   </energy>
  </scstep>
  <scstep>
   <time name="diag">    3.79    3.79</time>
   <time name="diis">   16.74   16.76</time>
   <time name="orth">    0.43    0.43</time>
   <time name="total">   23.70   23.73</time>
   <energy>
    <i name="e_fr_energy">    -95.13891153 </i>
    <i name="e_wo_entrp">    -95.12883324 </i>
    <i name="e_0_energy">    -95.13639195 </i>
   </energy>
  </scstep>
  <scstep>
   <time name="diag">    3.76    3.76</time>
   <time name="diis">   16.64   16.66</time>
   <time name="orth">    0.44    0.44</time>
   <time name="total">   23.60   23.63</time>
   <energy>
    <i name="e_fr_energy">    -95.13743248 </i>
    <i name="e_wo_entrp">    -95.12618079 </i>
    <i name="e_0_energy">    -95.13461956 </i>
   </energy>
  </scstep>
  <scstep>
   <time name="diag">    3.82    3.82</time>
   <time name="diis">   16.85   16.88</time>
   <time name="orth">    0.42    0.43</time>
   <time name="total">   23.83   23.86</time>
   <energy>
    <i name="e_fr_energy">    -95.13926620 </i>
    <i name="e_wo_entrp">    -95.12795932 </i>
    <i name="e_0_energy">    -95.13643948 </i>
   </energy>
  </scstep>
  <scstep>
   <time name="diag">    3.70    3.71</time>
   <time name="diis">   15.92   15.95</time>
   <time name="orth">    0.44    0.44</time>
   <time name="total">   22.80   22.83</time>
   <energy>
    <i name="e_fr_energy">    -95.13994882 </i>
    <i name="e_wo_entrp">    -95.12918476 </i>
    <i name="e_0_energy">    -95.13725781 </i>
   </energy>
  </scstep>
  <scstep>
   <time name="diag">    3.79    3.79</time>
   <time name="diis">   15.48   15.50</time>
   <time name="orth">    0.43    0.43</time>
   <time name="total">   22.48   22.51</time>
   <energy>
    <i name="e_fr_energy">    -95.14019635 </i>
    <i name="e_wo_entrp">    -95.12916755 </i>
    <i name="e_0_energy">    -95.13743915 </i>
   </energy>
  </scstep>
  <scstep>
   <time name="diag">    3.82    3.83</time>
   <time name="diis">   13.26   13.28</time>
   <time name="orth">    0.43    0.43</time>
   <time name="total">   20.27   20.30</time>
   <energy>
    <i name="e_fr_energy">    -95.14065131 </i>
    <i name="e_wo_entrp">    -95.13004669 </i>
    <i name="e_0_energy">    -95.13800016 </i>
   </energy>
  </scstep>
  <scstep>
   <time name="diag">    3.76    3.77</time>
   <time name="diis">   11.28   11.30</time>
   <time name="orth">    0.43    0.43</time>
   <time name="total">   18.23   18.25</time>
   <energy>
    <i name="e_fr_energy">    -95.14088503 </i>
    <i name="e_wo_entrp">    -95.13018010 </i>
    <i name="e_0_energy">    -95.13820880 </i>
   </energy>
  </scstep>
  <scstep>
   <time name="diag">    3.77    3.78</time>
   <time name="diis">   11.00   11.01</time>
   <time name="orth">    0.43    0.43</time>
   <time name="total">   17.92   17.94</time>
   <energy>
    <i name="e_fr_energy">    -95.14125898 </i>
    <i name="e_wo_entrp">    -95.13087359 </i>
    <i name="e_0_energy">    -95.13866264 </i>
   </energy>
  </scstep>
  <scstep>
   <time name="diag">    3.68    3.68</time>
   <time name="diis">   10.11   10.12</time>
   <time name="orth">    0.43    0.43</time>
   <time name="total">   16.93   16.96</time>
   <energy>
    <i name="e_fr_energy">    -95.14148556 </i>
    <i name="e_wo_entrp">    -95.13114924 </i>
    <i name="e_0_energy">    -95.13890148 </i>
   </energy>
  </scstep>
  <scstep>
   <time name="diag">    3.81    3.82</time>
   <time name="diis">   10.01   10.03</time>
   <time name="orth">    0.43    0.43</time>
   <time name="total">   17.02   17.04</time>
   <energy>
    <i name="e_fr_energy">    -95.14158969 </i>
    <i name="e_wo_entrp">    -95.13122835 </i>
    <i name="e_0_energy">    -95.13899936 </i>
   </energy>
  </scstep>
  <scstep>
   <time name="diag">    3.77    3.77</time>
   <time name="diis">    9.76    9.78</time>
   <time name="orth">    0.44    0.44</time>
   <time name="total">   14.92   14.94</time>
   <energy>
    <i name="alphaZ">    252.91199290 </i>
    <i name="ewald">   9569.20159791 </i>
    <i name="hartreedc"> -17453.94324367 </i>
    <i name="XCdc">     91.77881842 </i>
    <i name="pawpsdc">   9097.82794856 </i>
    <i name="pawaedc">  -9205.70076821 </i>
    <i name="eentropy">     -0.01032172 </i>
    <i name="bandstr">   -398.17650643 </i>
    <i name="atom">   7950.96879731 </i>
    <i name="e_fr_energy">    -95.14168494 </i>
    <i name="e_wo_entrp">    -95.13136322 </i>
    <i name="e_0_energy">    -95.13910451 </i>
   </energy>
  </scstep>
  <structure>
   <crystal>
    <varray name="basis" >
     <v>       5.64000000       0.00000000       0.00000000 </v>
     <v>       0.00000000       5.64000000       0.00000000 </v>
     <v>       0.00000000       0.00000000      15.00000000 </v>
    </varray>
    <i name="volume">    477.14400000 </i>
    <varray name="rec_basis" >
     <v>       0.17730496       0.00000000       0.00000000 </v>
     <v>       0.00000000       0.17730496       0.00000000 </v>
     <v>       0.00000000       0.00000000       0.06666667 </v>
    </varray>
   </crystal>
   <varray name="positions" >
    <v>       0.00000000       0.00000000       0.00000000 </v>
    <v>       0.50000000       0.00000000       0.00000000 </v>
    <v>       0.00000000       0.50000000       0.00000000 </v>
    <v>       0.50000000       0.50000000       0.00000000 </v>
    <v>       0.25000000       0.25000000       0.09400000 </v>
    <v>       0.75000000       0.25000000       0.09400000 </v>
    <v>       0.25000000       0.75000000       0.09400000 </v>
    <v>       0.75000000       0.75000000       0.09400000 </v>
    <v>       0.00000000      -0.00247739       0.19004414 </v>
    <v>       0.50000000       0.00041118       0.18747761 </v>
    <v>       0.00000000       0.49921475       0.19082854 </v>
    <v>       0.50000000       0.49955889       0.18752791 </v>
    <v>       0.00000000      -0.04645026       0.35322013 </v>
    <v>       0.00000000       0.40232641       0.35387336 </v>
   </varray>
  </structure>
  <varray name="forces" >
   <v>       0.00000000       0.00007981       0.08340563 </v>
   <v>       0.00000000      -0.01369208       0.05525503 </v>
   <v>       0.00000000       0.01554493       0.09611035 </v>
   <v>       0.00000000      -0.01512213      -0.03733789 </v>
   <v>      -0.03242313      -0.01335712      -0.14579877 </v>
   <v>       0.03242313      -0.01335712      -0.14579877 </v>
   <v>      -0.03111167       0.00570494      -0.14518248 </v>
   <v>       0.03111167       0.00570494      -0.14518248 </v>
   <v>       0.00000000      -0.10267892       1.04493796 </v>
   <v>       0.00000000      -0.00972263      -0.04195928 </v>
   <v>       0.00000000      -0.14329383       1.27989230 </v>
   <v>       0.00000000      -0.02682728      -0.07637294 </v>
   <v>       0.00000000      -1.15711159      -0.88066728 </v>
   <v>       0.00000000       1.46812806      -0.94130139 </v>
  </varray>
  <varray name="stress" >
   <v>     -35.77176984       0.00000000       0.00000000 </v>
   <v>       0.00000000     -27.51633440       2.79882733 </v>
   <v>       0.00000000       2.79882717     -15.80185399 </v>
  </varray>
  <energy>
   <i name="e_fr_energy">    -95.14168494 </i>
   <i name="e_wo_entrp">    -95.13910451 </i>
   <i name="e_0_energy">     -0.01032172 </i>
  </energy>
  <time name="totalsc">  537.36  538.09</time>
 </calculation>
 <calculation>
  <scstep>
   <time name="dav">   21.83   21.86</time>
   <time name="total">   24.58   24.62</time>
   <energy>
    <i name="alphaZ">    252.91199290 </i>
    <i name="ewald">   9561.35442576 </i>
    <i name="hartreedc"> -17446.49974304 </i>
    <i name="XCdc">     91.72802974 </i>
    <i name="pawpsdc">   9097.72029232 </i>
    <i name="pawaedc">  -9205.59206261 </i>
    <i name="eentropy">     -0.01114811 </i>
    <i name="bandstr">   -397.79081883 </i>
    <i name="atom">   7950.96879731 </i>
    <i name="e_fr_energy">    -95.21023456 </i>
    <i name="e_wo_entrp">    -95.19908644 </i>
    <i name="e_0_energy">    -95.20744753 </i>
   </energy>
  </scstep>
  <scstep>
   <time name="diag">    3.81    3.82</time>
   <time name="diis">   16.26   16.28</time>
   <time name="orth">    0.43    0.43</time>
   <time name="total">   23.23   23.26</time>
   <energy>
    <i name="e_fr_energy">    -95.36805371 </i>
    <i name="e_wo_entrp">    -95.36147562 </i>
    <i name="e_0_energy">    -95.36640918 </i>
   </energy>
  </scstep>
  <scstep>
   <time name="diag">    3.80    3.81</time>
   <time name="diis">   16.74   16.77</time>
   <time name="orth">    0.43    0.43</time>
   <time name="total">   23.69   23.72</time>
   <energy>
    <i name="e_fr_energy">    -95.69389789 </i>
    <i name="e_wo_entrp">    -95.69301839 </i>
    <i name="e_0_energy">    -95.69367802 </i>
   </energy>
  </scstep>
  <scstep>
   <time name="diag">    3.77    3.77</time>
   <time name="diis">   16.40   16.42</time>
   <time name="orth">    0.43    0.43</time>
   <time name="total">   23.32   23.35</time>
   <energy>
    <i name="e_fr_energy">    -95.37860436 </i>
    <i name="e_wo_entrp">    -95.36753977 </i>
    <i name="e_0_energy">    -95.37583821 </i>
   </energy>
  </scstep>
  <scstep>
   <time name="diag">    3.71    3.72</time>
   <time name="diis">   16.08   16.10</time>
   <time name="orth">    0.43    0.43</time>
   <time name="total">   22.96   22.99</time>
   <energy>
    <i name="e_fr_energy">    -95.36617828 </i>
    <i name="e_wo_entrp">    -95.35871699 </i>
    <i name="e_0_energy">    -95.36431296 </i>
   </energy>
  </scstep>
  <scstep>
   <time name="diag">    3.71    3.72</time>
   <time name="diis">   16.96   16.99</time>
   <time name="orth">    0.44    0.44</time>
   <time name="total">   23.86   23.89</time>
   <energy>
    <i name="e_fr_energy">    -95.35652763 </i>
    <i name="e_wo_entrp">    -95.35323993 </i>
    <i name="e_0_energy">    -95.35570571 </i>
   </energy>
  </scstep>
  <scstep>
   <time name="diag">    3.78    3.78</time>
   <time name="diis">   16.47   16.49</time>
   <time name="orth">    0.43    0.43</time>
   <time name="total">   23.43   23.46</time>
   <energy>
    <i name="e_fr_energy">    -95.35513593 </i>
    <i name="e_wo_entrp">    -95.35143642 </i>
    <i name="e_0_energy">    -95.35421105 </i>
   </energy>
  </scstep>
  <scstep>
   <time name="diag">    3.84    3.84</time>
   <time name="diis">   17.22   17.25</time>
   <time name="orth">    0.44    0.44</time>
   <time name="total">   24.27   24.30</time>
   <energy>
    <i name="e_fr_energy">    -95.35035427 </i>
    <i name="e_wo_entrp">    -95.34760501 </i>
    <i name="e_0_energy">    -95.34966695 </i>
   </energy>
  </scstep>
  <scstep>
   <time name="diag">    3.82    3.83</time>
   <time name="diis">   16.49   16.51</time>
   <time name="orth">    0.43    0.43</time>
   <time name="total">   23.49   23.52</time>
   <energy>
    <i name="e_fr_energy">    -95.34888960 </i>
    <i name="e_wo_entrp">    -95.34602243 </i>
    <i name="e_0_energy">    -95.34817281 </i>
   </energy>
  </scstep>
  <scstep>
   <time name="diag">    3.74    3.75</time>
   <time name="diis">   16.47   16.49</time>
   <time name="orth">    0.43    0.43</time>
   <time name="total">   23.38   23.41</time>
   <energy>
    <i name="e_fr_energy">    -95.34015400 </i>
    <i name="e_wo_entrp">    -95.33569904 </i>
    <i name="e_0_energy">    -95.33904026 </i>
   </energy>
  </scstep>
  <scstep>
   <time name="diag">    3.74    3.75</time>
   <time name="diis">   16.86   16.89</time>
   <time name="orth">    0.43    0.43</time>
   <time name="total">   23.75   23.78</time>
   <energy>
    <i name="e_fr_energy">    -95.37326171 </i>
    <i name="e_wo_entrp">    -95.36771141 </i>
    <i name="e_0_energy">    -95.37187414 </i>
   </energy>
  </scstep>
  <scstep>
   <time name="diag">    3.73    3.73</time>
   <time name="diis">   16.01   16.04</time>
   <time name="orth">    0.43    0.43</time>
   <time name="total">   22.90   22.93</time>
   <energy>
    <i name="e_fr_energy">    -95.38644004 </i>
    <i name="e_wo_entrp">    -95.38161557 </i>
    <i name="e_0_energy">    -95.38523393 </i>
   </energy>
  </scstep>
  <scstep>
   <time name="diag">    3.80    3.80</time>
   <time name="diis">   16.09   16.11</time>
   <time name="orth">    0.42    0.42</time>
   <time name="total">   23.02   23.05</time>
   <energy>
    <i name="e_fr_energy">    -95.40637483 </i>
    <i name="e_wo_entrp">    -95.40157241 </i>
    <i name="e_0_energy">    -95.40517423 </i>
   </energy>
  </scstep>
  <scstep>
   <time name="diag">    3.62    3.62</time>
   <time name="diis">   15.89   15.91</time>
   <time name="orth">    0.44    0.44</time>
   <time name="total">   22.67   22.70</time>
   <energy>
    <i name="e_fr_energy">    -95.41335354 </i>
    <i name="e_wo_entrp">    -95.40871274 </i>
    <i name="e_0_energy">    -95.41219334 </i>
   </energy>
  </scstep>
  <scstep>
   <time name="diag">    3.81    3.82</time>
   <time name="diis">   16.23   16.25</time>
   <time name="orth">    0.44    0.44</time>
   <time name="total">   23.25   23.28</time>
   <energy>
    <i name="e_fr_energy">    -95.41958853 </i>
    <i name="e_wo_entrp">    -95.41470700 </i>
    <i name="e_0_energy">    -95.41836815 </i>
   </energy>
  </scstep>
  <scstep>
   <time name="diag">    3.82    3.83</time>
   <time name="diis">   15.23   15.26</time>
   <time name="orth">    0.43    0.43</time>
   <time name="total">   22.22   22.25</time>
   <energy>
    <i name="e_fr_energy">    -95.42470156 </i>
    <i name="e_wo_entrp">    -95.41963669 </i>
    <i name="e_0_energy">    -95.42343534 </i>
   </energy>
  </scstep>
  <scstep>
   <time name="diag">    3.74    3.75</time>
   <time name="diis">   14.40   14.41</time>
   <time name="orth">    0.44    0.43</time>
   <time name="total">   21.32   21.35</time>
   <energy>
    <i name="e_fr_energy">    -95.42921897 </i>
    <i name="e_wo_entrp">    -95.42401436 </i>
    <i name="e_0_energy">    -95.42791782 </i>
   </energy>
  </scstep>
  <scstep>
   <time name="diag">    3.73    3.73</time>
   <time name="diis">   12.60   12.62</time>
   <time name="orth">    0.44    0.44</time>
   <time name="total">   19.56   19.58</time>
   <energy>
    <i name="e_fr_energy">    -95.43069103 </i>
    <i name="e_wo_entrp">    -95.42559434 </i>
    <i name="e_0_energy">    -95.42941686 </i>
   </energy>
  </scstep>
  <scstep>
   <time name="diag">    3.82    3.83</time>
   <time name="diis">   11.07   11.09</time>
   <time name="orth">    0.44    0.44</time>
   <time name="total">   18.12   18.15</time>
   <energy>
    <i name="e_fr_energy">    -95.43173179 </i>
    <i name="e_wo_entrp">    -95.42675060 </i>
    <i name="e_0_energy">    -95.43048649 </i>
   </energy>
  </scstep>
  <scstep>
   <time name="diag">    3.74    3.75</time>
   <time name="diis">   10.12   10.14</time>
   <time name="orth">    0.43    0.43</time>
   <time name="total">   17.06   17.08</time>
   <energy>
    <i name="e_fr_energy">    -95.43205205 </i>
    <i name="e_wo_entrp">    -95.42702515 </i>
    <i name="e_0_energy">    -95.43079532 </i>
   </energy>
  </scstep>
  <scstep>
   <time name="diag">    3.75    3.75</time>
   <time name="diis">    9.50    9.51</time>
   <time name="orth">    0.44    0.44</time>
   <time name="total">   14.63   14.65</time>
   <energy>
    <i name="alphaZ">    252.91199290 </i>
    <i name="ewald">   9561.35442576 </i>
    <i name="hartreedc"> -17440.47317024 </i>
    <i name="XCdc">     92.71633935 </i>
    <i name="pawpsdc">   9092.50569767 </i>
    <i name="pawaedc">  -9201.66474511 </i>
    <i name="eentropy">     -0.00509535 </i>
    <i name="bandstr">   -403.74633166 </i>
    <i name="atom">   7950.96879731 </i>
    <i name="e_fr_energy">    -95.43208937 </i>
    <i name="e_wo_entrp">    -95.42699402 </i>
    <i name="e_0_energy">    -95.43081553 </i>
   </energy>
  </scstep>
  <structure>
   <crystal>
    <varray name="basis" >
     <v>       5.64000000       0.00000000       0.00000000 </v>
     <v>       0.00000000       5.64000000       0.00000000 </v>
     <v>       0.00000000       0.00000000      15.00000000 </v>
    </varray>
    <i name="volume">    477.14400000 </i>
    <varray name="rec_basis" >
     <v>       0.17730496       0.00000000       0.00000000 </v>
     <v>       0.00000000       0.17730496       0.00000000 </v>
     <v>       0.00000000       0.00000000       0.06666667 </v>
    </varray>
   </crystal>
   <varray name="positions" >
    <v>       0.00000000       0.00000000       0.00000000 </v>
    <v>       0.50000000       0.00000000       0.00000000 </v>
    <v>       0.00000000       0.50000000       0.00000000 </v>
    <v>       0.50000000       0.50000000       0.00000000 </v>
    <v>       0.25000000       0.25000000       0.09400000 </v>
    <v>       0.75000000       0.25000000       0.09400000 </v>
    <v>       0.25000000       0.75000000       0.09400000 </v>
    <v>       0.75000000       0.75000000       0.09400000 </v>
    <v>       0.00000000      -0.00338142       0.19079007 </v>
    <v>       0.50000000       0.00056122       0.18728698 </v>
    <v>       0.00000000       0.49892820       0.19186071 </v>
    <v>       0.50000000       0.49939792       0.18735564 </v>
    <v>       0.00000000      -0.06340052       0.35269227 </v>
    <v>       0.00000000       0.42038574       0.35358388 </v>
   </varray>
  </structure>
  <varray name="forces" >
   <v>       0.00000000      -0.00198245       0.01193235 </v>
   <v>       0.00000000      -0.02381920       0.02429900 </v>
   <v>       0.00000000       0.02310458      -0.00565887 </v>
   <v>       0.00000000      -0.01696146      -0.00467036 </v>
   <v>      -0.05292392       0.00070190      -0.13040162 </v>
   <v>       0.05292392       0.00070190      -0.13040162 </v>
   <v>      -0.03521282      -0.00705520      -0.14262203 </v>
   <v>       0.03521282      -0.00705520      -0.14262203 </v>
   <v>       0.00000000      -0.09142419       1.28662561 </v>
   <v>       0.00000000      -0.01785585       0.04511856 </v>
   <v>       0.00000000      -0.15386870       1.32027902 </v>
   <v>       0.00000000      -0.03154750       0.02544149 </v>
   <v>       0.00000000      -0.27458966      -1.06419296 </v>
   <v>       0.00000000       0.60165101      -1.09312652 </v>
  </varray>
  <varray name="stress" >
   <v>     -28.54981587       0.00000000       0.00000000 </v>
   <v>       0.00000000     -18.76606216       2.94737776 </v>
   <v>       0.00000000       2.94737744     -16.95711210 </v>
  </varray>
  <energy>
   <i name="e_fr_energy">    -95.43208937 </i>
   <i name="e_wo_entrp">    -95.43081553 </i>
   <i name="e_0_energy">     -0.00509535 </i>
  </energy>
  <time name="totalsc">  498.82  499.51</time>
 </calculation>
 <calculation>
  <scstep>
   <time name="dav">   20.94   20.97</time>
   <time name="total">   23.67   23.70</time>
   <energy>
    <i name="alphaZ">    252.91199290 </i>
    <i name="ewald">   9561.23779122 </i>
    <i name="hartreedc"> -17439.96959439 </i>
    <i name="XCdc">     92.84544602 </i>
    <i name="pawpsdc">   9092.39931679 </i>
    <i name="pawaedc">  -9201.55386737 </i>
    <i name="eentropy">     -0.00543591 </i>
    <i name="bandstr">   -403.33461817 </i>
    <i name="atom">   7950.96879731 </i>
    <i name="e_fr_energy">    -94.50017161 </i>
    <i name="e_wo_entrp">    -94.49473569 </i>
    <i name="e_0_energy">    -94.49881263 </i>
   </energy>
  </scstep>
  <scstep>
   <time name="diag">    3.74    3.74</time>
   <time name="diis">   16.57   16.59</time>
   <time name="orth">    0.43    0.43</time>
   <time name="total">   23.45   23.48</time>
   <energy>
    <i name="e_fr_energy">    -95.56030148 </i>
    <i name="e_wo_entrp">    -95.55798326 </i>
    <i name="e_0_energy">    -95.55972193 </i>
   </energy>
  </scstep>
  <scstep>
   <time name="diag">    3.79    3.79</time>
   <time name="diis">   16.62   16.64</time>
   <time name="orth">    0.44    0.44</time>
   <time name="total">   23.60   23.64</time>
   <energy>
    <i name="e_fr_energy">    -96.05103885 </i>
    <i name="e_wo_entrp">    -96.04345787 </i>
    <i name="e_0_energy">    -96.04914360 </i>
   </energy>
  </scstep>
  <scstep>
   <time name="diag">    3.83    3.83</time>
   <time name="diis">   16.36   16.39</time>
   <time name="orth">    0.43    0.43</time>
   <time name="total">   23.38   23.42</time>
   <energy>
    <i name="e_fr_energy">    -95.52195272 </i>
    <i name="e_wo_entrp">    -95.52343633 </i>
    <i name="e_0_energy">    -95.52232362 </i>
   </energy>
  </scstep>
  <scstep>
   <time name="diag">    3.77    3.78</time>
   <time name="diis">   16.10   16.13</time>
   <time name="orth">    0.43    0.43</time>
   <time name="total">   23.01   23.04</time>
   <energy>
    <i name="e_fr_energy">    -95.33745828 </i>
    <i name="e_wo_entrp">    -95.32549947 </i>
    <i name="e_0_energy">    -95.33446858 </i>
   </energy>
  </scstep>
  <scstep>
   <time name="diag">    3.80    3.80</time>
   <time name="diis">   16.74   16.76</time>
   <time name="orth">    0.44    0.44</time>
   <time name="total">   23.70   23.74</time>
   <energy>
    <i name="e_fr_energy">    -95.31845107 </i>
    <i name="e_wo_entrp">    -95.31944884 </i>
    <i name="e_0_energy">    -95.31870051 </i>
   </energy>
  </scstep>
  <scstep>
   <time name="diag">    3.79    3.80</time>
   <time name="diis">   16.18   16.20</time>
   <time name="orth">    0.43    0.43</time>
   <time name="total">   23.14   23.17</time>
   <energy>
    <i name="e_fr_energy">    -95.31376045 </i>
    <i name="e_wo_entrp">    -95.30700338 </i>
    <i name="e_0_energy">    -95.31207118 </i>
   </energy>
  </scstep>
  <scstep>
   <time name="diag">    3.82    3.83</time>
   <time name="diis">   16.79   16.81</time>
   <time name="orth">    0.44    0.44</time>
   <time name="total">   23.82   23.86</time>
   <energy>
    <i name="e_fr_energy">    -95.31311597 </i>
    <i name="e_wo_entrp">    -95.30849533 </i>
    <i name="e_0_energy">    -95.31196081 </i>
   </energy>
  </scstep>
  <scstep>
   <time name="diag">    3.84    3.84</time>
   <time name="diis">   16.56   16.59</time>
   <time name="orth">    0.43    0.43</time>
   <time name="total">   23.57   23.60</time>
   <energy>
    <i name="e_fr_energy">    -95.31993196 </i>
    <i name="e_wo_entrp">    -95.31336223 </i>
    <i name="e_0_energy">    -95.31828952 </i>
   </energy>
  </scstep>
  <scstep>
   <time name="diag">    3.77    3.77</time>
   <time name="diis">   16.62   16.64</time>
   <time name="orth">    0.43    0.43</time>
   <time name="total">   23.55   23.58</time>
   <energy>
    <i name="e_fr_energy">    -95.31576792 </i>
    <i name="e_wo_entrp">    -95.30864613 </i>
    <i name="e_0_energy">    -95.31398747 </i>
   </energy>
  </scstep>
  <scstep>
   <time name="diag">    3.70    3.70</time>
   <time name="diis">   16.12   16.14</time>
   <time name="orth">    0.43    0.43</time>
   <time name="total">   22.97   23.00</time>
   <energy>
    <i name="e_fr_energy">    -95.31419039 </i>
    <i name="e_wo_entrp">    -95.30754762 </i>
    <i name="e_0_energy">    -95.31252970 </i>
   </energy>
  </scstep>
  <scstep>
   <time name="diag">    3.70    3.71</time>
   <time name="diis">   16.09   16.11</time>
   <time name="orth">    0.44    0.44</time>
   <time name="total">   22.98   23.01</time>
   <energy>
    <i name="e_fr_energy">    -95.31352004 </i>
    <i name="e_wo_entrp">    -95.30814106 </i>
    <i name="e_0_energy">    -95.31217530 </i>
   </energy>
  </scstep>
  <scstep>
   <time name="diag">    3.78    3.78</time>
   <time name="diis">   16.19   16.21</time>
   <time name="orth">    0.43    0.44</time>
   <time name="total">   23.16   23.20</time>
   <energy>
    <i name="e_fr_energy">    -95.31409976 </i>
    <i name="e_wo_entrp">    -95.30876866 </i>
    <i name="e_0_energy">    -95.31276699 </i>
   </energy>
  </scstep>
  <scstep>
   <time name="diag">    3.83    3.83</time>
   <time name="diis">   15.09   15.11</time>
   <time name="orth">    0.43    0.43</time>
   <time name="total">   22.10   22.14</time>
   <energy>
    <i name="e_fr_energy">    -95.31383190 </i>
    <i name="e_wo_entrp">    -95.30832428 </i>
    <i name="e_0_energy">    -95.31245500 </i>
   </energy>
  </scstep>
  <scstep>
   <time name="diag">    3.81    3.81</time>
   <time name="diis">   14.16   14.17</time>
   <time name="orth">    0.44    0.44</time>
   <time name="total">   21.17   21.20</time>
   <energy>
    <i name="e_fr_energy">    -95.31363758 </i>
    <i name="e_wo_entrp">    -95.30737529 </i>
    <i name="e_0_energy">    -95.31207201 </i>
   </energy>
  </scstep>
  <scstep>
   <time name="diag">    3.80    3.80</time>
   <time name="diis">   12.23   12.25</time>
   <time name="orth">    0.43    0.43</time>
   <time name="total">   17.44   17.46</time>
   <energy>
    <i name="alphaZ">    252.91199290 </i>
    <i name="ewald">   9561.23779122 </i>
    <i name="hartreedc"> -17445.31628919 </i>
    <i name="XCdc">     92.72913322 </i>
    <i name="pawpsdc">   9131.19488165 </i>
    <i name="pawaedc">  -9240.22892824 </i>
    <i name="eentropy">     -0.00624227 </i>
    <i name="bandstr">   -398.80484268 </i>
    <i name="atom">   7950.96879731 </i>
    <i name="e_fr_energy">    -95.31370609 </i>
    <i name="e_wo_entrp">    -95.30746382 </i>
    <i name="e_0_energy">    -95.31214552 </i>
   </energy>
  </scstep>
  <structure>
   <crystal>
    <varray name="basis" >
     <v>       5.64000000       0.00000000       0.00000000 </v>
     <v>       0.00000000       5.64000000       0.00000000 </v>
     <v>       0.00000000       0.00000000      15.00000000 </v>
    </varray>
    <i name="volume">    477.14400000 </i>
    <varray name="rec_basis" >
     <v>       0.17730496       0.00000000       0.00000000 </v>
     <v>       0.00000000       0.17730496       0.00000000 </v>
     <v>       0.00000000       0.00000000       0.06666667 </v>
    </varray>
   </crystal>
   <varray name="positions" >
    <v>       0.00000000       0.00000000       0.00000000 </v>
    <v>       0.50000000       0.00000000       0.00000000 </v>
    <v>       0.00000000       0.50000000       0.00000000 </v>
    <v>       0.50000000       0.50000000       0.00000000 </v>
    <v>       0.25000000       0.25000000       0.09400000 </v>
    <v>       0.75000000       0.25000000       0.09400000 </v>
    <v>       0.25000000       0.75000000       0.09400000 </v>
    <v>       0.75000000       0.75000000       0.09400000 </v>
    <v>       0.00000000      -0.00518948       0.19228194 </v>
    <v>       0.50000000       0.00086131       0.18690573 </v>
    <v>       0.00000000       0.49835510       0.19392504 </v>
    <v>       0.50000000       0.49907599       0.18701110 </v>
    <v>       0.00000000      -0.09730105       0.35163655 </v>
    <v>       0.00000000       0.45650441       0.35300491 </v>
   </varray>
  </structure>
  <varray name="forces" >
   <v>       0.00000000      -0.00813090       0.02132668 </v>
   <v>       0.00000000      -0.03686395       0.01373229 </v>
   <v>       0.00000000       0.03332784       0.05262216 </v>
   <v>       0.00000000       0.00083538       0.02957795 </v>
   <v>      -0.12213571       0.00523297      -0.08928072 </v>
   <v>       0.12213571       0.00523297      -0.08928072 </v>
   <v>      -0.07396288      -0.03676138      -0.12178705 </v>
   <v>       0.07396288      -0.03676138      -0.12178705 </v>
   <v>       0.00000000      -0.10579327       1.15913064 </v>
   <v>       0.00000000      -0.01177256       0.02409678 </v>
   <v>       0.00000000      -0.09719089       0.92100917 </v>
   <v>       0.00000000      -0.02495767       0.00634492 </v>
   <v>       0.00000000       1.70186736      -0.94543772 </v>
   <v>       0.00000000      -1.38826452      -0.86026734 </v>
  </varray>
  <varray name="stress" >
   <v>     -29.17684129       0.00000000       0.00000000 </v>
   <v>       0.00000000     -15.50677447       2.85649936 </v>
   <v>       0.00000000       2.85649961     -13.18184447 </v>
  </varray>
  <energy>
   <i name="e_fr_energy">    -95.31370609 </i>
   <i name="e_wo_entrp">    -95.31214552 </i>
   <i name="e_0_energy">     -0.00624227 </i>
  </energy>
  <time name="totalsc">  398.74  399.29</time>
 </calculation>
 <calculation>
  <scstep>
   <time name="dav">   21.20   21.23</time>
   <time name="total">   23.95   23.99</time>
   <energy>
    <i name="alphaZ">    252.91199290 </i>
    <i name="ewald">   9558.99711796 </i>
    <i name="hartreedc"> -17443.63622784 </i>
    <i name="XCdc">     92.65808419 </i>
    <i name="pawpsdc">   9130.56099295 </i>
    <i name="pawaedc">  -9239.59675313 </i>
    <i name="eentropy">     -0.00645917 </i>
    <i name="bandstr">   -398.02175023 </i>
    <i name="atom">   7950.96879731 </i>
    <i name="e_fr_energy">    -95.16420508 </i>
    <i name="e_wo_entrp">    -95.15774591 </i>
    <i name="e_0_energy">    -95.16259029 </i>
   </energy>
  </scstep>
  <scstep>
   <time name="diag">    3.83    3.83</time>
   <time name="diis">   16.46   16.49</time>
   <time name="orth">    0.44    0.44</time>
   <time name="total">   23.49   23.52</time>
   <energy>
    <i name="e_fr_energy">    -95.46882232 </i>
    <i name="e_wo_entrp">    -95.46435528 </i>
    <i name="e_0_energy">    -95.46770556 </i>
   </energy>
  </scstep>
  <scstep>
   <time name="diag">    3.71    3.71</time>
   <time name="diis">   16.71   16.73</time>
   <time name="orth">    0.43    0.43</time>
   <time name="total">   23.55   23.59</time>
   <energy>
    <i name="e_fr_energy">    -95.54671382 </i>
    <i name="e_wo_entrp">    -95.54186804 </i>
    <i name="e_0_energy">    -95.54550237 </i>
   </energy>
  </scstep>
  <scstep>
   <time name="diag">    3.74    3.74</time>
   <time name="diis">   15.90   15.92</time>
   <time name="orth">    0.43    0.43</time>
   <time name="total">   22.78   22.81</time>
   <energy>
    <i name="e_fr_energy">    -95.48951899 </i>
    <i name="e_wo_entrp">    -95.48552241 </i>
    <i name="e_0_energy">    -95.48851984 </i>
   </energy>
  </scstep>
  <scstep>
   <time name="diag">    3.77    3.77</time>
   <time name="diis">   16.85   16.87</time>
   <time name="orth">    0.43    0.43</time>
   <time name="total">   23.78   23.82</time>
   <energy>
    <i name="e_fr_energy">    -95.50167236 </i>
    <i name="e_wo_entrp">    -95.49591116 </i>
    <i name="e_0_energy">    -95.50023206 </i>
   </energy>
  </scstep>
  <scstep>
   <time name="diag">    3.78    3.79</time>
   <time name="diis">   16.36   16.38</time>
   <time name="orth">    0.43    0.43</time>
   <time name="total">   23.30   23.33</time>
   <energy>
    <i name="e_fr_energy">    -95.47695280 </i>
    <i name="e_wo_entrp">    -95.47353197 </i>
    <i name="e_0_energy">    -95.47609760 </i>
   </energy>
  </scstep>
  <scstep>
   <time name="diag">    3.72    3.72</time>
   <time name="diis">   16.20   16.22</time>
   <time name="orth">    0.43    0.43</time>
   <time name="total">   23.08   23.11</time>
   <energy>
    <i name="e_fr_energy">    -95.48546323 </i>
    <i name="e_wo_entrp">    -95.47673665 </i>
    <i name="e_0_energy">    -95.48328159 </i>
   </energy>
  </scstep>
  <scstep>
   <time name="diag">    3.80    3.80</time>
   <time name="diis">   16.96   16.99</time>
   <time name="orth">    0.44    0.44</time>
   <time name="total">   23.96   23.99</time>
   <energy>
    <i name="e_fr_energy">    -95.48241705 </i>
    <i name="e_wo_entrp">    -95.47817128 </i>
    <i name="e_0_energy">    -95.48135561 </i>
   </energy>
  </scstep>
  <scstep>
   <time name="diag">    3.84    3.84</time>
   <time name="diis">   16.39   16.41</time>
   <time name="orth">    0.43    0.43</time>
   <time name="total">   23.41   23.44</time>
   <energy>
    <i name="e_fr_energy">    -95.48087685 </i>
    <i name="e_wo_entrp">    -95.47563351 </i>
    <i name="e_0_energy">    -95.47956602 </i>
   </energy>
  </scstep>
  <scstep>
   <time name="diag">    3.72    3.73</time>
   <time name="diis">   16.27   16.30</time>
   <time name="orth">    0.42    0.43</time>
   <time name="total">   23.15   23.18</time>
   <energy>
    <i name="e_fr_energy">    -95.48007751 </i>
    <i name="e_wo_entrp">    -95.47515103 </i>
    <i name="e_0_energy">    -95.47884589 </i>
   </energy>
  </scstep>
  <scstep>
   <time name="diag">    3.74    3.75</time>
   <time name="diis">   16.14   16.16</time>
   <time name="orth">    0.42    0.43</time>
   <time name="total">   23.00   23.04</time>
   <energy>
    <i name="e_fr_energy">    -95.47998978 </i>
    <i name="e_wo_entrp">    -95.47491402 </i>
    <i name="e_0_energy">    -95.47872084 </i>
   </energy>
  </scstep>
  <scstep>
   <time name="diag">    3.68    3.69</time>
   <time name="diis">   14.78   14.80</time>
   <time name="orth">    0.43    0.43</time>
   <time name="total">   21.63   21.66</time>
   <energy>
    <i name="e_fr_energy">    -95.48012447 </i>
    <i name="e_wo_entrp">    -95.47490947 </i>
    <i name="e_0_energy">    -95.47882072 </i>
   </energy>
  </scstep>
  <scstep>
   <time name="diag">    3.76    3.77</time>
   <time name="diis">   15.01   15.03</time>
   <time name="orth">    0.43    0.43</time>
   <time name="total">   21.93   21.96</time>
   <energy>
    <i name="e_fr_energy">    -95.48048659 </i>
    <i name="e_wo_entrp">    -95.47499232 </i>
    <i name="e_0_energy">    -95.47911302 </i>
   </energy>
  </scstep>
  <scstep>
   <time name="diag">    3.73    3.74</time>
   <time name="diis">   12.28   12.30</time>
   <time name="orth">    0.43    0.43</time>
   <time name="total">   19.18   19.21</time>
   <energy>
    <i name="e_fr_energy">    -95.48060463 </i>
    <i name="e_wo_entrp">    -95.47557453 </i>
    <i name="e_0_energy">    -95.47934711 </i>
   </energy>
  </scstep>
  <scstep>
   <time name="diag">    3.71    3.71</time>
   <time name="diis">    9.30    9.31</time>
   <time name="orth">    0.44    0.44</time>
   <time name="total">   14.40   14.42</time>
   <energy>
    <i name="alphaZ">    252.91199290 </i>
    <i name="ewald">   9558.99711796 </i>
    <i name="hartreedc"> -17438.08460144 </i>
    <i name="XCdc">     92.73265534 </i>
    <i name="pawpsdc">   9091.07353926 </i>
    <i name="pawaedc">  -9200.23184804 </i>
    <i name="eentropy">     -0.00507297 </i>
    <i name="bandstr">   -403.84323728 </i>
    <i name="atom">   7950.96879731 </i>
    <i name="e_fr_energy">    -95.48065697 </i>
    <i name="e_wo_entrp">    -95.47558401 </i>
    <i name="e_0_energy">    -95.47938873 </i>
   </energy>
  </scstep>
  <structure>
   <crystal>
    <varray name="basis" >
     <v>       5.64000000       0.00000000       0.00000000 </v>
     <v>       0.00000000       5.64000000       0.00000000 </v>
     <v>       0.00000000       0.00000000      15.00000000 </v>
    </varray>
    <i name="volume">    477.14400000 </i>
    <varray name="rec_basis" >
     <v>       0.17730496       0.00000000       0.00000000 </v>
     <v>       0.00000000       0.17730496       0.00000000 </v>
     <v>       0.00000000       0.00000000       0.06666667 </v>
    </varray>
   </crystal>
   <varray name="positions" >
    <v>       0.00000000       0.00000000       0.00000000 </v>
    <v>       0.50000000       0.00000000       0.00000000 </v>
    <v>       0.00000000       0.50000000       0.00000000 </v>
    <v>       0.50000000       0.50000000       0.00000000 </v>
    <v>       0.25000000       0.25000000       0.09400000 </v>
    <v>       0.75000000       0.25000000       0.09400000 </v>
    <v>       0.25000000       0.75000000       0.09400000 </v>
    <v>       0.75000000       0.75000000       0.09400000 </v>
    <v>       0.00000000      -0.00399482       0.19129620 </v>
    <v>       0.50000000       0.00066303       0.18715764 </v>
    <v>       0.00000000       0.49873377       0.19256104 </v>
    <v>       0.50000000       0.49928870       0.18723876 </v>
    <v>       0.00000000      -0.07490146       0.35233411 </v>
    <v>       0.00000000       0.43263920       0.35338746 </v>
   </varray>
  </structure>
  <varray name="forces" >
   <v>       0.00000000      -0.00115457       0.00569567 </v>
   <v>       0.00000000      -0.02536445       0.02010092 </v>
   <v>       0.00000000       0.02473422       0.00769969 </v>
   <v>       0.00000000      -0.01418438       0.00793906 </v>
   <v>      -0.07938842       0.00614778      -0.11746038 </v>
   <v>       0.07938842       0.00614778      -0.11746038 </v>
   <v>      -0.04925125      -0.01907744      -0.13777648 </v>
[...]
       <r>    10.3632     0.0000    73.0000 </r>
       <r>    10.4594     0.0000    73.0000 </r>
       <r>    10.5556     0.0000    73.0000 </r>
       <r>    10.6518     0.0000    73.0000 </r>
       <r>    10.7480     0.0000    73.0000 </r>
       <r>    10.8442     0.0000    73.0000 </r>
       <r>    10.9404     0.0000    73.0000 </r>
       <r>    11.0366     0.0000    73.0000 </r>
       <r>    11.1328     0.0000    73.0000 </r>
       <r>    11.2291     0.0000    73.0000 </r>
       <r>    11.3253     0.0000    73.0000 </r>
       <r>    11.4215     0.0000    73.0000 </r>
       <r>    11.5177     0.0000    73.0000 </r>
       <r>    11.6139     0.0000    73.0000 </r>
       <r>    11.7101     0.0000    73.0000 </r>
       <r>    11.8063     0.0000    73.0000 </r>
       <r>    11.9025     0.0000    73.0000 </r>
       <r>    11.9987     0.0000    73.0000 </r>
       <r>    12.0949     0.0000    73.0000 </r>
       <r>    12.1911     0.0000    73.0000 </r>
       <r>    12.2873     0.0000    73.0000 </r>
       <r>    12.3835     0.0000    73.0000 </r>
       <r>    12.4797     0.0000    73.0000 </r>
       <r>    12.5759     0.0000    73.0000 </r>
       <r>    12.6721     0.0000    73.0000 </r>
       <r>    12.7683     0.0000    73.0000 </r>
       <r>    12.8645     0.0000    73.0000 </r>
       <r>    12.9607     0.0000    73.0000 </r>
       <r>    13.0569     0.0000    73.0000 </r>
       <r>    13.1531     0.0000    73.0000 </r>
       <r>    13.2493     0.0000    73.0000 </r>
       <r>    13.3455     0.0000    73.0000 </r>
       <r>    13.4417     0.0000    73.0000 </r>
       <r>    13.5380     0.0000    73.0000 </r>
       <r>    13.6342     0.0000    73.0000 </r>
       <r>    13.7304     0.0000    73.0000 </r>
       <r>    13.8266     0.0000    73.0000 </r>
       <r>    13.9228     0.0000    73.0000 </r>
       <r>    14.0190     0.0000    73.0000 </r>
       <r>    14.1152     0.0000    73.0000 </r>
       <r>    14.2114     0.0000    73.0000 </r>
       <r>    14.3076     0.0000    73.0000 </r>
       <r>    14.4038     0.0000    73.0000 </r>
       <r>    14.5000     0.0000    73.0000 </r>
       <r>    14.5962     0.0000    73.0000 </r>
       <r>    14.6924     0.0000    73.0000 </r>
       <r>    14.7886     0.0000    73.0000 </r>
       <r>    14.8848     0.0000    73.0000 </r>
       <r>    14.9810     0.0000    73.0000 </r>
       <r>    15.0772     0.0000    73.0000 </r>
       <r>    15.1734     0.0000    73.0000 </r>
       <r>    15.2696     0.0000    73.0000 </r>
       <r>    15.3658     0.0000    73.0000 </r>
       <r>    15.4620     0.0000    73.0000 </r>
       <r>    15.5582     0.0000    73.0000 </r>
       <r>    15.6544     0.0000    73.0000 </r>
       <r>    15.7507     0.0000    73.0000 </r>
       <r>    15.8469     0.0000    73.0000 </r>
       <r>    15.9431     0.0000    73.0000 </r>
       <r>    16.0393     0.0000    73.0000 </r>
      </set>
      <set comment="spin 2">
       <r>   -12.8220    20.7891     2.0000 </r>
       <r>   -12.7258     0.0000     2.0000 </r>
       <r>   -12.6296     0.0000     2.0000 </r>
       <r>   -12.5334     0.0000     2.0000 </r>
       <r>   -12.4372     0.0000     2.0000 </r>
       <r>   -12.3410     0.0000     2.0000 </r>
       <r>   -12.2448     0.0000     2.0000 </r>
       <r>   -12.1486     0.0000     2.0000 </r>
       <r>   -12.0524     0.0000     2.0000 </r>
       <r>   -11.9562     0.0000     2.0000 </r>
       <r>   -11.8600     0.0000     2.0000 </r>
       <r>   -11.7638     0.0000     2.0000 </r>
       <r>   -11.6676     0.0000     2.0000 </r>
       <r>   -11.5714     0.0000     2.0000 </r>
       <r>   -11.4752     0.0000     2.0000 </r>
       <r>   -11.3790     0.0000     2.0000 </r>
       <r>   -11.2828     0.0000     2.0000 </r>
       <r>   -11.1865     0.0000     2.0000 </r>
       <r>   -11.0903     0.0000     2.0000 </r>
       <r>   -10.9941     0.0000     2.0000 </r>
       <r>   -10.8979     0.0000     2.0000 </r>
       <r>   -10.8017     0.0000     2.0000 </r>
       <r>   -10.7055     0.0000     2.0000 </r>
       <r>   -10.6093     0.0000     2.0000 </r>
       <r>   -10.5131     0.0000     2.0000 </r>
       <r>   -10.4169     0.0000     2.0000 </r>
       <r>   -10.3207     0.0000     2.0000 </r>
       <r>   -10.2245     0.0000     2.0000 </r>
       <r>   -10.1283     0.0000     2.0000 </r>
       <r>   -10.0321     0.0000     2.0000 </r>
       <r>    -9.9359     0.0000     2.0000 </r>
       <r>    -9.8397     0.0000     2.0000 </r>
       <r>    -9.7435     0.0000     2.0000 </r>
       <r>    -9.6473     0.0000     2.0000 </r>
       <r>    -9.5511     0.0000     2.0000 </r>
       <r>    -9.4549     0.0000     2.0000 </r>
       <r>    -9.3587     0.0000     2.0000 </r>
       <r>    -9.2625     0.0000     2.0000 </r>
       <r>    -9.1663     0.0000     2.0000 </r>
       <r>    -9.0701     0.0000     2.0000 </r>
       <r>    -8.9738     0.0000     2.0000 </r>
       <r>    -8.8776     0.0000     2.0000 </r>
       <r>    -8.7814     0.0000     2.0000 </r>
       <r>    -8.6852     0.0000     2.0000 </r>
       <r>    -8.5890     0.0000     2.0000 </r>
       <r>    -8.4928     0.0000     2.0000 </r>
       <r>    -8.3966     0.0000     2.0000 </r>
       <r>    -8.3004     0.0000     2.0000 </r>
       <r>    -8.2042     0.0000     2.0000 </r>
       <r>    -8.1080     0.0000     2.0000 </r>
       <r>    -8.0118     0.0039     2.0004 </r>
       <r>    -7.9156    -0.0108     1.9993 </r>
       <r>    -7.8194    -0.0298     1.9965 </r>
       <r>    -7.7232     2.0749     2.1961 </r>
       <r>    -7.6270     0.6467     2.2583 </r>
       <r>    -7.5308    -0.0971     2.2490 </r>
       <r>    -7.4346     0.0104     2.2500 </r>
       <r>    -7.3384     0.0003     2.2500 </r>
       <r>    -7.2422     0.0000     2.2500 </r>
       <r>    -7.1460     0.0000     2.2500 </r>
       <r>    -7.0498     0.0000     2.2500 </r>
       <r>    -6.9536     0.0005     2.2501 </r>
       <r>    -6.8574     0.0204     2.2520 </r>
       <r>    -6.7611    -0.1383     2.2387 </r>
       <r>    -6.6649     0.7533     2.3112 </r>
       <r>    -6.5687     6.6234     2.9484 </r>
       <r>    -6.4725     3.3765     3.2732 </r>
       <r>    -6.3763    -0.2620     3.2480 </r>
       <r>    -6.2801     0.0410     3.2520 </r>
       <r>    -6.1839    -0.2466     3.2282 </r>
       <r>    -6.0877     1.9197     3.4129 </r>
       <r>    -5.9915     3.7084     3.7697 </r>
       <r>    -5.8953    -0.1961     3.7508 </r>
       <r>    -5.7991    -0.1133     3.7399 </r>
       <r>    -5.7029     0.6750     3.8049 </r>
       <r>    -5.6067     4.7196     4.2589 </r>
       <r>    -5.5105     4.6456     4.7058 </r>
       <r>    -5.4143     2.4559     4.9421 </r>
       <r>    -5.3181     0.9802     5.0364 </r>
       <r>    -5.2219     2.1294     5.2413 </r>
       <r>    -5.1257     0.0381     5.2449 </r>
       <r>    -5.0295     0.4237     5.2857 </r>
       <r>    -4.9333     4.4299     5.7118 </r>
       <r>    -4.8371     0.3763     5.7481 </r>
       <r>    -4.7409     0.7640     5.8216 </r>
       <r>    -4.6447     5.2157     6.3233 </r>
       <r>    -4.5485     5.2332     6.8268 </r>
       <r>    -4.4522     4.5591     7.2654 </r>
       <r>    -4.3560     2.8992     7.5443 </r>
       <r>    -4.2598     4.0598     7.9349 </r>
       <r>    -4.1636     0.9506     8.0263 </r>
       <r>    -4.0674     9.2837     8.9195 </r>
       <r>    -3.9712     8.9011     9.7758 </r>
       <r>    -3.8750     2.5371    10.0199 </r>
       <r>    -3.7788    -0.1511    10.0053 </r>
       <r>    -3.6826     6.1570    10.5977 </r>
       <r>    -3.5864     7.5978    11.3286 </r>
       <r>    -3.4902     8.3083    12.1279 </r>
       <r>    -3.3940     9.3085    13.0234 </r>
       <r>    -3.2978     7.6599    13.7603 </r>
       <r>    -3.2016     8.1820    14.5475 </r>
       <r>    -3.1054     3.0937    14.8451 </r>
       <r>    -3.0092     8.9350    15.7047 </r>
       <r>    -2.9130     8.9030    16.5612 </r>
       <r>    -2.8168     7.2038    17.2542 </r>
       <r>    -2.7206     7.4664    17.9725 </r>
       <r>    -2.6244     5.5373    18.5052 </r>
       <r>    -2.5282     8.2271    19.2967 </r>
       <r>    -2.4320    10.1925    20.2773 </r>
       <r>    -2.3358    12.7650    21.5053 </r>
       <r>    -2.2395     5.7332    22.0569 </r>
       <r>    -2.1433     9.6902    22.9891 </r>
       <r>    -2.0471     5.3458    23.5034 </r>
       <r>    -1.9509    20.7357    25.4983 </r>
       <r>    -1.8547    22.0395    27.6186 </r>
       <r>    -1.7585     1.5607    27.7687 </r>
       <r>    -1.6623     1.4348    27.9067 </r>
       <r>    -1.5661     1.2931    28.0311 </r>
       <r>    -1.4699    19.0964    29.8683 </r>
       <r>    -1.3737    26.9677    32.4627 </r>
       <r>    -1.2775     5.2307    32.9659 </r>
       <r>    -1.1813     7.5158    33.6890 </r>
       <r>    -1.0851    11.6426    34.8090 </r>
       <r>    -0.9889     4.6121    35.2527 </r>
       <r>    -0.8927     6.5930    35.8870 </r>
       <r>    -0.7965    10.2885    36.8768 </r>
       <r>    -0.7003     5.1284    37.3702 </r>
       <r>    -0.6041     8.9725    38.2334 </r>
       <r>    -0.5079     5.7546    38.7870 </r>
       <r>    -0.4117    17.5249    40.4730 </r>
       <r>    -0.3155    21.1434    42.5071 </r>
       <r>    -0.2193    12.6907    43.7280 </r>
       <r>    -0.1231     9.0880    44.6023 </r>
       <r>    -0.0268    15.9640    46.1381 </r>
       <r>     0.0694    13.7547    47.4613 </r>
       <r>     0.1656    11.9894    48.6148 </r>
       <r>     0.2618     6.0420    49.1960 </r>
       <r>     0.3580    19.4544    51.0676 </r>
       <r>     0.4542    22.5277    53.2349 </r>
       <r>     0.5504    21.7811    55.3303 </r>
       <r>     0.6466    19.8260    57.2377 </r>
       <r>     0.7428    15.9651    58.7736 </r>
       <r>     0.8390    18.2694    60.5312 </r>
       <r>     0.9352    13.2832    61.8091 </r>
       <r>     1.0314    11.6264    62.9276 </r>
       <r>     1.1276    13.2067    64.1981 </r>
       <r>     1.2238    26.7587    66.7724 </r>
       <r>     1.3200    18.7275    68.5741 </r>
       <r>     1.4162    13.5613    69.8787 </r>
       <r>     1.5124     9.5473    70.7972 </r>
       <r>     1.6086    13.0820    72.0558 </r>
       <r>     1.7048     2.1944    72.2669 </r>
       <r>     1.8010     0.3928    72.3047 </r>
       <r>     1.8972     2.0972    72.5064 </r>
       <r>     1.9934    -0.2306    72.4842 </r>
       <r>     2.0896     1.8396    72.6612 </r>
       <r>     2.1858     3.4547    72.9936 </r>
       <r>     2.2821     0.0950    73.0027 </r>
       <r>     2.3783    -0.0363    72.9992 </r>
       <r>     2.4745     0.0080    73.0000 </r>
       <r>     2.5707     0.0001    73.0000 </r>
       <r>     2.6669     0.0000    73.0000 </r>
       <r>     2.7631     0.0000    73.0000 </r>
       <r>     2.8593     0.0000    73.0000 </r>
       <r>     2.9555     0.0000    73.0000 </r>
       <r>     3.0517     0.0000    73.0000 </r>
       <r>     3.1479     0.0000    73.0000 </r>
       <r>     3.2441     0.0000    73.0000 </r>
       <r>     3.3403     0.0000    73.0000 </r>
       <r>     3.4365     0.0000    73.0000 </r>
       <r>     3.5327     0.0000    73.0000 </r>
       <r>     3.6289     0.0000    73.0000 </r>
       <r>     3.7251     0.0000    73.0000 </r>
       <r>     3.8213     0.0000    73.0000 </r>
       <r>     3.9175     0.0000    73.0000 </r>
       <r>     4.0137     0.0000    73.0000 </r>
       <r>     4.1099     0.0000    73.0000 </r>
       <r>     4.2061     0.0000    73.0000 </r>
       <r>     4.3023     0.0000    73.0000 </r>
       <r>     4.3985     0.0000    73.0000 </r>
       <r>     4.4948     0.0000    73.0000 </r>
       <r>     4.5910     0.0000    73.0000 </r>
       <r>     4.6872     0.0000    73.0000 </r>
       <r>     4.7834     0.0000    73.0000 </r>
       <r>     4.8796     0.0000    73.0000 </r>
       <r>     4.9758     0.0000    73.0000 </r>
       <r>     5.0720     0.0000    73.0000 </r>
       <r>     5.1682     0.0000    73.0000 </r>
       <r>     5.2644     0.0000    73.0000 </r>
       <r>     5.3606     0.0000    73.0000 </r>
       <r>     5.4568     0.0000    73.0000 </r>
       <r>     5.5530     0.0000    73.0000 </r>
       <r>     5.6492     0.0000    73.0000 </r>
       <r>     5.7454     0.0000    73.0000 </r>
       <r>     5.8416     0.0000    73.0000 </r>
       <r>     5.9378     0.0000    73.0000 </r>
       <r>     6.0340     0.0000    73.0000 </r>
       <r>     6.1302     0.0000    73.0000 </r>
       <r>     6.2264     0.0000    73.0000 </r>
       <r>     6.3226     0.0000    73.0000 </r>
       <r>     6.4188     0.0000    73.0000 </r>
       <r>     6.5150     0.0000    73.0000 </r>
       <r>     6.6112     0.0000    73.0000 </r>
       <r>     6.7075     0.0000    73.0000 </r>
       <r>     6.8037     0.0000    73.0000 </r>
       <r>     6.8999     0.0000    73.0000 </r>
       <r>     6.9961     0.0000    73.0000 </r>
       <r>     7.0923     0.0000    73.0000 </r>
       <r>     7.1885     0.0000    73.0000 </r>
       <r>     7.2847     0.0000    73.0000 </r>
       <r>     7.3809     0.0000    73.0000 </r>
       <r>     7.4771     0.0000    73.0000 </r>
       <r>     7.5733     0.0000    73.0000 </r>
       <r>     7.6695     0.0000    73.0000 </r>
       <r>     7.7657     0.0000    73.0000 </r>
       <r>     7.8619     0.0000    73.0000 </r>
       <r>     7.9581     0.0000    73.0000 </r>
       <r>     8.0543     0.0000    73.0000 </r>
       <r>     8.1505     0.0000    73.0000 </r>
       <r>     8.2467     0.0000    73.0000 </r>
       <r>     8.3429     0.0000    73.0000 </r>
       <r>     8.4391     0.0000    73.0000 </r>
       <r>     8.5353     0.0000    73.0000 </r>
       <r>     8.6315     0.0000    73.0000 </r>
       <r>     8.7277     0.0000    73.0000 </r>
       <r>     8.8239     0.0000    73.0000 </r>
       <r>     8.9201     0.0000    73.0000 </r>
       <r>     9.0164     0.0000    73.0000 </r>
       <r>     9.1126     0.0000    73.0000 </r>
       <r>     9.2088     0.0000    73.0000 </r>
       <r>     9.3050     0.0000    73.0000 </r>
       <r>     9.4012     0.0000    73.0000 </r>
       <r>     9.4974     0.0000    73.0000 </r>
       <r>     9.5936     0.0000    73.0000 </r>
       <r>     9.6898     0.0000    73.0000 </r>
       <r>     9.7860     0.0000    73.0000 </r>
       <r>     9.8822     0.0000    73.0000 </r>
       <r>     9.9784     0.0000    73.0000 </r>
       <r>    10.0746     0.0000    73.0000 </r>
       <r>    10.1708     0.0000    73.0000 </r>
       <r>    10.2670     0.0000    73.0000 </r>
       <r>    10.3632     0.0000    73.0000 </r>
       <r>    10.4594     0.0000    73.0000 </r>
       <r>    10.5556     0.0000    73.0000 </r>
       <r>    10.6518     0.0000    73.0000 </r>
       <r>    10.7480     0.0000    73.0000 </r>
       <r>    10.8442     0.0000    73.0000 </r>
       <r>    10.9404     0.0000    73.0000 </r>
       <r>    11.0366     0.0000    73.0000 </r>
       <r>    11.1328     0.0000    73.0000 </r>
       <r>    11.2291     0.0000    73.0000 </r>
       <r>    11.3253     0.0000    73.0000 </r>
       <r>    11.4215     0.0000    73.0000 </r>
       <r>    11.5177     0.0000    73.0000 </r>
       <r>    11.6139     0.0000    73.0000 </r>
       <r>    11.7101     0.0000    73.0000 </r>
       <r>    11.8063     0.0000    73.0000 </r>
       <r>    11.9025     0.0000    73.0000 </r>
       <r>    11.9987     0.0000    73.0000 </r>
       <r>    12.0949     0.0000    73.0000 </r>
       <r>    12.1911     0.0000    73.0000 </r>
       <r>    12.2873     0.0000    73.0000 </r>
       <r>    12.3835     0.0000    73.0000 </r>
       <r>    12.4797     0.0000    73.0000 </r>
       <r>    12.5759     0.0000    73.0000 </r>
       <r>    12.6721     0.0000    73.0000 </r>
       <r>    12.7683     0.0000    73.0000 </r>
       <r>    12.8645     0.0000    73.0000 </r>
       <r>    12.9607     0.0000    73.0000 </r>
       <r>    13.0569     0.0000    73.0000 </r>
       <r>    13.1531     0.0000    73.0000 </r>
       <r>    13.2493     0.0000    73.0000 </r>
       <r>    13.3455     0.0000    73.0000 </r>
       <r>    13.4417     0.0000    73.0000 </r>
       <r>    13.5380     0.0000    73.0000 </r>
       <r>    13.6342     0.0000    73.0000 </r>
       <r>    13.7304     0.0000    73.0000 </r>
       <r>    13.8266     0.0000    73.0000 </r>
       <r>    13.9228     0.0000    73.0000 </r>
       <r>    14.0190     0.0000    73.0000 </r>
       <r>    14.1152     0.0000    73.0000 </r>
       <r>    14.2114     0.0000    73.0000 </r>
       <r>    14.3076     0.0000    73.0000 </r>
       <r>    14.4038     0.0000    73.0000 </r>
       <r>    14.5000     0.0000    73.0000 </r>
       <r>    14.5962     0.0000    73.0000 </r>
       <r>    14.6924     0.0000    73.0000 </r>
       <r>    14.7886     0.0000    73.0000 </r>
       <r>    14.8848     0.0000    73.0000 </r>
       <r>    14.9810     0.0000    73.0000 </r>
       <r>    15.0772     0.0000    73.0000 </r>
       <r>    15.1734     0.0000    73.0000 </r>
       <r>    15.2696     0.0000    73.0000 </r>
       <r>    15.3658     0.0000    73.0000 </r>
       <r>    15.4620     0.0000    73.0000 </r>
       <r>    15.5582     0.0000    73.0000 </r>
       <r>    15.6544     0.0000    73.0000 </r>
       <r>    15.7507     0.0000    73.0000 </r>
       <r>    15.8469     0.0000    73.0000 </r>
       <r>    15.9431     0.0000    73.0000 </r>
       <r>    16.0393     0.0000    73.0000 </r>
      </set>
     </set>
    </array>
   </total>
  </dos>
 </calculation>
 <structure name="finalpos" >
  <crystal>
   <varray name="basis" >
    <v>       5.64000000       0.00000000       0.00000000 </v>
    <v>       0.00000000       5.64000000       0.00000000 </v>
    <v>       0.00000000       0.00000000      15.00000000 </v>
   </varray>
   <i name="volume">    477.14400000 </i>
   <varray name="rec_basis" >
    <v>       0.17730496       0.00000000       0.00000000 </v>
    <v>       0.00000000       0.17730496       0.00000000 </v>
    <v>       0.00000000       0.00000000       0.06666667 </v>
   </varray>
  </crystal>
  <varray name="positions" >
   <v>       0.00000000       0.00000000       0.00000000 </v>
   <v>       0.50000000       0.00000000       0.00000000 </v>
   <v>       0.00000000       0.50000000       0.00000000 </v>
   <v>       0.50000000       0.50000000       0.00000000 </v>
   <v>       0.25000000       0.25000000       0.09400000 </v>
   <v>       0.75000000       0.25000000       0.09400000 </v>
   <v>       0.25000000       0.75000000       0.09400000 </v>
   <v>       0.75000000       0.75000000       0.09400000 </v>
   <v>       0.00000000      -0.00044827       0.19640314 </v>
   <v>       0.50000000       0.01669157       0.18925742 </v>
   <v>       0.00000000       0.50174944       0.19615273 </v>
   <v>       0.50000000       0.48355624       0.18931237 </v>
   <v>       0.00000000       0.00549081       0.34241341 </v>
   <v>       0.00000000       0.50537030       0.34208908 </v>
  </varray>
  <varray name="selective"  type="logical" >
   <v type="logical" >  F  F  F </v>
   <v type="logical" >  F  F  F </v>
   <v type="logical" >  F  F  F </v>
   <v type="logical" >  F  F  F </v>
   <v type="logical" >  F  F  F </v>
   <v type="logical" >  F  F  F </v>
   <v type="logical" >  F  F  F </v>
   <v type="logical" >  F  F  F </v>
   <v type="logical" >  T  T  T </v>
   <v type="logical" >  T  T  T </v>
   <v type="logical" >  T  T  T </v>
   <v type="logical" >  T  T  T </v>
   <v type="logical" >  T  T  T </v>
   <v type="logical" >  T  T  T </v>
  </varray>
  <nose>
   <v>      -3.00000000       0.00000000       0.00010000       0.00010000 </v>
  </nose>
 </structure>
</modeling>
