Crystal                                 
           1
     5.640000    0.000000    0.000000
     0.000000    5.640000    0.000000
     0.000000    0.000000   15.000000
   Fe   Cl
  12   2
Direct configuration=     1
   0.00000000  0.00000000  0.00000000
   0.50000000  0.00000000  0.00000000
   0.00000000  0.50000000  0.00000000
   0.50000000  0.50000000  0.00000000
   0.25000000  0.25000000  0.09400000
   0.75000000  0.25000000  0.09400000
   0.25000000  0.75000000  0.09400000
   0.75000000  0.75000000  0.09400000
   0.00000000  0.00000000  0.18800000
   0.50000000  0.00000000  0.18800000
   0.00000000  0.50000000  0.18800000
   0.50000000  0.50000000  0.18800000
   0.00000000  0.00000000  0.35466667
   0.00000000  0.35283688  0.35466667
Direct configuration=     2
   0.00000000  0.00000000  0.00000000
   0.50000000  0.00000000  0.00000000
   0.00000000  0.50000000  0.00000000
   0.50000000  0.50000000  0.00000000
   0.25000000  0.25000000  0.09400000
   0.75000000  0.25000000  0.09400000
   0.25000000  0.75000000  0.09400000
   0.75000000  0.75000000  0.09400000
   0.00000000 -0.00247739  0.19004414
   0.50000000  0.00041118  0.18747761
   0.00000000  0.49921475  0.19082854
   0.50000000  0.49955889  0.18752791
   0.00000000 -0.04645026  0.35322013
   0.00000000  0.40232641  0.35387336
Direct configuration=     3
   0.00000000  0.00000000  0.00000000
   0.50000000  0.00000000  0.00000000
   0.00000000  0.50000000  0.00000000
   0.50000000  0.50000000  0.00000000
   0.25000000  0.25000000  0.09400000
   0.75000000  0.25000000  0.09400000
   0.25000000  0.75000000  0.09400000
   0.75000000  0.75000000  0.09400000
   0.00000000 -0.00338142  0.19079007
   0.50000000  0.00056122  0.18728698
   0.00000000  0.49892820  0.19186071
   0.50000000  0.49939792  0.18735564
   0.00000000 -0.06340052  0.35269227
   0.00000000  0.42038574  0.35358388
Direct configuration=     4
   0.00000000  0.00000000  0.00000000
   0.50000000  0.00000000  0.00000000
   0.00000000  0.50000000  0.00000000
   0.50000000  0.50000000  0.00000000
   0.25000000  0.25000000  0.09400000
   0.75000000  0.25000000  0.09400000
   0.25000000  0.75000000  0.09400000
   0.75000000  0.75000000  0.09400000
   0.00000000 -0.00518948  0.19228194
   0.50000000  0.00086131  0.18690573
   0.00000000  0.49835510  0.19392504
   0.50000000  0.49907599  0.18701110
   0.00000000 -0.09730105  0.35163655
   0.00000000  0.45650441  0.35300491
Direct configuration=     5
   0.00000000  0.00000000  0.00000000
   0.50000000  0.00000000  0.00000000
   0.00000000  0.50000000  0.00000000
   0.50000000  0.50000000  0.00000000
   0.25000000  0.25000000  0.09400000
   0.75000000  0.25000000  0.09400000
   0.25000000  0.75000000  0.09400000
   0.75000000  0.75000000  0.09400000
   0.00000000 -0.00399482  0.19129620
   0.50000000  0.00066303  0.18715764
   0.00000000  0.49873377  0.19256104
   0.50000000  0.49928870  0.18723876
   0.00000000 -0.07490146  0.35233411
   0.00000000  0.43263920  0.35338746
Direct configuration=     6
   0.00000000  0.00000000  0.00000000
   0.50000000  0.00000000  0.00000000
   0.00000000  0.50000000  0.00000000
   0.50000000  0.50000000  0.00000000
   0.25000000  0.25000000  0.09400000
   0.75000000  0.25000000  0.09400000
   0.25000000  0.75000000  0.09400000
   0.75000000  0.75000000  0.09400000
   0.00000000 -0.00512520  0.19616896
   0.50000000  0.00051124  0.18731137
   0.00000000  0.49729149  0.19733771
   0.50000000  0.49894847  0.18732137
   0.00000000 -0.07564420  0.34826960
   0.00000000  0.43682562  0.34940580
Direct configuration=     7
   0.00000000  0.00000000  0.00000000
   0.50000000  0.00000000  0.00000000
   0.00000000  0.50000000  0.00000000
   0.50000000  0.50000000  0.00000000
   0.25000000  0.25000000  0.09400000
   0.75000000  0.25000000  0.09400000
   0.25000000  0.75000000  0.09400000
   0.75000000  0.75000000  0.09400000
   0.00000000 -0.00599799  0.19993135
   0.50000000  0.00039404  0.18743008
   0.00000000  0.49617786  0.20102591
   0.50000000  0.49868576  0.18738516
   0.00000000 -0.07621768  0.34513129
   0.00000000  0.44005807  0.34633145
Direct configuration=     8
   0.00000000  0.00000000  0.00000000
   0.50000000  0.00000000  0.00000000
   0.00000000  0.50000000  0.00000000
   0.50000000  0.50000000  0.00000000
   0.25000000  0.25000000  0.09400000
   0.75000000  0.25000000  0.09400000
   0.25000000  0.75000000  0.09400000
   0.75000000  0.75000000  0.09400000
   0.00000000 -0.00614937  0.20028326
   0.50000000  0.00067667  0.18743234
   0.00000000  0.49534939  0.20069146
   0.50000000  0.49785951  0.18742257
   0.00000000 -0.06948494  0.34421177
   0.00000000  0.43556095  0.34583075
Direct configuration=     9
   0.00000000  0.00000000  0.00000000
   0.50000000  0.00000000  0.00000000
   0.00000000  0.50000000  0.00000000
   0.50000000  0.50000000  0.00000000
   0.25000000  0.25000000  0.09400000
   0.75000000  0.25000000  0.09400000
   0.25000000  0.75000000  0.09400000
   0.75000000  0.75000000  0.09400000
   0.00000000 -0.00622387  0.20045647
   0.50000000  0.00081578  0.18743345
   0.00000000  0.49494162  0.20052685
   0.50000000  0.49745284  0.18744098
   0.00000000 -0.06617113  0.34375919
   0.00000000  0.43334749  0.34558431
Direct configuration=    10
   0.00000000  0.00000000  0.00000000
   0.50000000  0.00000000  0.00000000
   0.00000000  0.50000000  0.00000000
   0.50000000  0.50000000  0.00000000
   0.25000000  0.25000000  0.09400000
   0.75000000  0.25000000  0.09400000
   0.25000000  0.75000000  0.09400000
   0.75000000  0.75000000  0.09400000
   0.00000000 -0.00607791  0.19941852
   0.50000000  0.00155704  0.18747367
   0.00000000  0.49437911  0.20016689
   0.50000000  0.49617452  0.18747661
   0.00000000 -0.06425710  0.34381989
   0.00000000  0.43377048  0.34499794
Direct configuration=    11
   0.00000000  0.00000000  0.00000000
   0.50000000  0.00000000  0.00000000
   0.00000000  0.50000000  0.00000000
   0.50000000  0.50000000  0.00000000
   0.25000000  0.25000000  0.09400000
   0.75000000  0.25000000  0.09400000
   0.25000000  0.75000000  0.09400000
   0.75000000  0.75000000  0.09400000
   0.00000000 -0.00580044  0.19744530
   0.50000000  0.00296622  0.18755012
   0.00000000  0.49330974  0.19948259
   0.50000000  0.49374436  0.18754434
   0.00000000 -0.06061840  0.34393527
   0.00000000  0.43457463  0.34388320
Direct configuration=    12
   0.00000000  0.00000000  0.00000000
   0.50000000  0.00000000  0.00000000
   0.00000000  0.50000000  0.00000000
   0.50000000  0.50000000  0.00000000
   0.25000000  0.25000000  0.09400000
   0.75000000  0.25000000  0.09400000
   0.25000000  0.75000000  0.09400000
   0.75000000  0.75000000  0.09400000
   0.00000000 -0.00583210  0.19714138
   0.50000000  0.00396205  0.18759391
   0.00000000  0.49307901  0.19914488
   0.50000000  0.49235173  0.18759319
   0.00000000 -0.05956255  0.34364000
   0.00000000  0.43584520  0.34344902
Direct configuration=    13
   0.00000000  0.00000000  0.00000000
   0.50000000  0.00000000  0.00000000
   0.00000000  0.50000000  0.00000000
   0.50000000  0.50000000  0.00000000
   0.25000000  0.25000000  0.09400000
   0.75000000  0.25000000  0.09400000
   0.25000000  0.75000000  0.09400000
   0.75000000  0.75000000  0.09400000
   0.00000000 -0.00592711  0.19622959
   0.50000000  0.00694954  0.18772528
   0.00000000  0.49238682  0.19813174
   0.50000000  0.48817382  0.18773977
   0.00000000 -0.05639499  0.34275419
   0.00000000  0.43965690  0.34214646
Direct configuration=    14
   0.00000000  0.00000000  0.00000000
   0.50000000  0.00000000  0.00000000
   0.00000000  0.50000000  0.00000000
   0.50000000  0.50000000  0.00000000
   0.25000000  0.25000000  0.09400000
   0.75000000  0.25000000  0.09400000
   0.25000000  0.75000000  0.09400000
   0.75000000  0.75000000  0.09400000
   0.00000000 -0.00611711  0.19440603
   0.50000000  0.01292452  0.18798802
   0.00000000  0.49100245  0.19610546
   0.50000000  0.47981800  0.18803292
   0.00000000 -0.05005986  0.34098256
   0.00000000  0.44728031  0.33954135
Direct configuration=    15
   0.00000000  0.00000000  0.00000000
   0.50000000  0.00000000  0.00000000
   0.00000000  0.50000000  0.00000000
   0.50000000  0.50000000  0.00000000
   0.25000000  0.25000000  0.09400000
   0.75000000  0.25000000  0.09400000
   0.25000000  0.75000000  0.09400000
   0.75000000  0.75000000  0.09400000
   0.00000000 -0.00602754  0.19526565
   0.50000000  0.01010796  0.18786417
   0.00000000  0.49165503  0.19706064
   0.50000000  0.48375688  0.18789473
   0.00000000 -0.05304620  0.34181769
   0.00000000  0.44368669  0.34076938
Direct configuration=    16
   0.00000000  0.00000000  0.00000000
   0.50000000  0.00000000  0.00000000
   0.00000000  0.50000000  0.00000000
   0.50000000  0.50000000  0.00000000
   0.25000000  0.25000000  0.09400000
   0.75000000  0.25000000  0.09400000
   0.25000000  0.75000000  0.09400000
   0.75000000  0.75000000  0.09400000
   0.00000000 -0.00661161  0.19594214
   0.50000000  0.01155663  0.18818083
   0.00000000  0.49299949  0.19634806
   0.50000000  0.48282327  0.18821571
   0.00000000 -0.05254724  0.34112088
   0.00000000  0.44596095  0.34104849
Direct configuration=    17
   0.00000000  0.00000000  0.00000000
   0.50000000  0.00000000  0.00000000
   0.00000000  0.50000000  0.00000000
   0.50000000  0.50000000  0.00000000
   0.25000000  0.25000000  0.09400000
   0.75000000  0.25000000  0.09400000
   0.25000000  0.75000000  0.09400000
   0.75000000  0.75000000  0.09400000
   0.00000000 -0.00713719  0.19655089
   0.50000000  0.01286025  0.18846578
   0.00000000  0.49420932  0.19570684
   0.50000000  0.48198314  0.18850455
   0.00000000 -0.05209824  0.34049383
   0.00000000  0.44800750  0.34129965
Direct configuration=    18
   0.00000000  0.00000000  0.00000000
   0.50000000  0.00000000  0.00000000
   0.00000000  0.50000000  0.00000000
   0.50000000  0.50000000  0.00000000
   0.25000000  0.25000000  0.09400000
   0.75000000  0.25000000  0.09400000
   0.25000000  0.75000000  0.09400000
   0.75000000  0.75000000  0.09400000
   0.00000000 -0.00706021  0.19646173
   0.50000000  0.01266931  0.18842404
   0.00000000  0.49403212  0.19580076
   0.50000000  0.48210619  0.18846224
   0.00000000 -0.05216401  0.34058567
   0.00000000  0.44770775  0.34126287
Direct configuration=    19
   0.00000000  0.00000000  0.00000000
   0.50000000  0.00000000  0.00000000
   0.00000000  0.50000000  0.00000000
   0.50000000  0.50000000  0.00000000
   0.25000000  0.25000000  0.09400000
   0.75000000  0.25000000  0.09400000
   0.25000000  0.75000000  0.09400000
   0.75000000  0.75000000  0.09400000
   0.00000000 -0.00683591  0.19620194
   0.50000000  0.01211297  0.18830244
   0.00000000  0.49351580  0.19607441
   0.50000000  0.48246473  0.18833898
   0.00000000 -0.05235562  0.34085327
   0.00000000  0.44683435  0.34115568
Direct configuration=    20
   0.00000000  0.00000000  0.00000000
   0.50000000  0.00000000  0.00000000
   0.00000000  0.50000000  0.00000000
   0.50000000  0.50000000  0.00000000
   0.25000000  0.25000000  0.09400000
   0.75000000  0.25000000  0.09400000
   0.25000000  0.75000000  0.09400000
   0.75000000  0.75000000  0.09400000
   0.00000000 -0.00699049  0.19638098
   0.50000000  0.01249639  0.18838625
   0.00000000  0.49387164  0.19588582
   0.50000000  0.48221763  0.18842393
   0.00000000 -0.05222357  0.34066885
   0.00000000  0.44743627  0.34122955
Direct configuration=    21
   0.00000000  0.00000000  0.00000000
   0.50000000  0.00000000  0.00000000
   0.00000000  0.50000000  0.00000000
   0.50000000  0.50000000  0.00000000
   0.25000000  0.25000000  0.09400000
   0.75000000  0.25000000  0.09400000
   0.25000000  0.75000000  0.09400000
   0.75000000  0.75000000  0.09400000
   0.00000000 -0.00688957  0.19633829
   0.50000000  0.01356467  0.18872452
   0.00000000  0.49497908  0.19604719
   0.50000000  0.48208724  0.18882551
   0.00000000 -0.05168860  0.34077287
   0.00000000  0.44897175  0.34123263
Direct configuration=    22
   0.00000000  0.00000000  0.00000000
   0.50000000  0.00000000  0.00000000
   0.00000000  0.50000000  0.00000000
   0.50000000  0.50000000  0.00000000
   0.25000000  0.25000000  0.09400000
   0.75000000  0.25000000  0.09400000
   0.25000000  0.75000000  0.09400000
   0.75000000  0.75000000  0.09400000
   0.00000000 -0.00671234  0.19626333
   0.50000000  0.01544056  0.18931854
   0.00000000  0.49692375  0.19633056
   0.50000000  0.48185826  0.18953069
   0.00000000 -0.05074921  0.34095554
   0.00000000  0.45166803  0.34123805
Direct configuration=    23
   0.00000000  0.00000000  0.00000000
   0.50000000  0.00000000  0.00000000
   0.00000000  0.50000000  0.00000000
   0.50000000  0.50000000  0.00000000
   0.25000000  0.25000000  0.09400000
   0.75000000  0.25000000  0.09400000
   0.25000000  0.75000000  0.09400000
   0.75000000  0.75000000  0.09400000
   0.00000000 -0.00664448  0.19623462
   0.50000000  0.01615892  0.18954601
   0.00000000  0.49766844  0.19643907
   0.50000000  0.48177058  0.18980073
   0.00000000 -0.05038948  0.34102549
   0.00000000  0.45270055  0.34124012
Direct configuration=    24
   0.00000000  0.00000000  0.00000000
   0.50000000  0.00000000  0.00000000
   0.00000000  0.50000000  0.00000000
   0.50000000  0.50000000  0.00000000
   0.25000000  0.25000000  0.09400000
   0.75000000  0.25000000  0.09400000
   0.25000000  0.75000000  0.09400000
   0.75000000  0.75000000  0.09400000
   0.00000000 -0.00668438  0.19625150
   0.50000000  0.01573651  0.18941225
   0.00000000  0.49723054  0.19637526
   0.50000000  0.48182214  0.18964194
   0.00000000 -0.05060101  0.34098436
   0.00000000  0.45209340  0.34123890
Direct configuration=    25
   0.00000000  0.00000000  0.00000000
   0.50000000  0.00000000  0.00000000
   0.00000000  0.50000000  0.00000000
   0.50000000  0.50000000  0.00000000
   0.25000000  0.25000000  0.09400000
   0.75000000  0.25000000  0.09400000
   0.25000000  0.75000000  0.09400000
   0.75000000  0.75000000  0.09400000
   0.00000000 -0.00598347  0.19601977
   0.50000000  0.01698824  0.18967619
   0.00000000  0.49788718  0.19646273
   0.50000000  0.48179608  0.18981513
   0.00000000 -0.04768660  0.34126836
   0.00000000  0.45322736  0.34147232
Direct configuration=    26
   0.00000000  0.00000000  0.00000000
   0.50000000  0.00000000  0.00000000
   0.00000000  0.50000000  0.00000000
   0.50000000  0.50000000  0.00000000
   0.25000000  0.25000000  0.09400000
   0.75000000  0.25000000  0.09400000
   0.25000000  0.75000000  0.09400000
   0.75000000  0.75000000  0.09400000
   0.00000000 -0.00532804  0.19580307
   0.50000000  0.01815875  0.18992300
   0.00000000  0.49850121  0.19654452
   0.50000000  0.48177171  0.18997708
   0.00000000 -0.04496133  0.34153393
   0.00000000  0.45428772  0.34169059
Direct configuration=    27
   0.00000000  0.00000000  0.00000000
   0.50000000  0.00000000  0.00000000
   0.00000000  0.50000000  0.00000000
   0.50000000  0.50000000  0.00000000
   0.25000000  0.25000000  0.09400000
   0.75000000  0.25000000  0.09400000
   0.25000000  0.75000000  0.09400000
   0.75000000  0.75000000  0.09400000
   0.00000000 -0.00471493  0.19610480
   0.50000000  0.01834279  0.18985482
   0.00000000  0.49837856  0.19669904
   0.50000000  0.48243794  0.18960716
   0.00000000 -0.04169796  0.34140719
   0.00000000  0.45661887  0.34195028
Direct configuration=    28
   0.00000000  0.00000000  0.00000000
   0.50000000  0.00000000  0.00000000
   0.00000000  0.50000000  0.00000000
   0.50000000  0.50000000  0.00000000
   0.25000000  0.25000000  0.09400000
   0.75000000  0.25000000  0.09400000
   0.25000000  0.75000000  0.09400000
   0.75000000  0.75000000  0.09400000
   0.00000000 -0.00357609  0.19666526
   0.50000000  0.01868465  0.18972819
   0.00000000  0.49815073  0.19698608
   0.50000000  0.48367547  0.18892002
   0.00000000 -0.03563626  0.34117176
   0.00000000  0.46094897  0.34243266
Direct configuration=    29
   0.00000000  0.00000000  0.00000000
   0.50000000  0.00000000  0.00000000
   0.00000000  0.50000000  0.00000000
   0.50000000  0.50000000  0.00000000
   0.25000000  0.25000000  0.09400000
   0.75000000  0.25000000  0.09400000
   0.25000000  0.75000000  0.09400000
   0.75000000  0.75000000  0.09400000
   0.00000000 -0.00341606  0.19661844
   0.50000000  0.01858144  0.18966411
   0.00000000  0.49807299  0.19703723
   0.50000000  0.48403848  0.18876302
   0.00000000 -0.03431573  0.34123817
   0.00000000  0.46265756  0.34256265
Direct configuration=    30
   0.00000000  0.00000000  0.00000000
   0.50000000  0.00000000  0.00000000
   0.00000000  0.50000000  0.00000000
   0.50000000  0.50000000  0.00000000
   0.25000000  0.25000000  0.09400000
   0.75000000  0.25000000  0.09400000
   0.25000000  0.75000000  0.09400000
   0.75000000  0.75000000  0.09400000
   0.00000000 -0.00293594  0.19647797
   0.50000000  0.01827182  0.18947189
   0.00000000  0.49783976  0.19719068
   0.50000000  0.48512754  0.18829201
   0.00000000 -0.03035415  0.34143742
   0.00000000  0.46778332  0.34295263
Direct configuration=    31
   0.00000000  0.00000000  0.00000000
   0.50000000  0.00000000  0.00000000
   0.00000000  0.50000000  0.00000000
   0.50000000  0.50000000  0.00000000
   0.25000000  0.25000000  0.09400000
   0.75000000  0.25000000  0.09400000
   0.25000000  0.75000000  0.09400000
   0.75000000  0.75000000  0.09400000
   0.00000000 -0.00197572  0.19619704
   0.50000000  0.01765258  0.18908744
   0.00000000  0.49737331  0.19749758
   0.50000000  0.48730566  0.18734999
   0.00000000 -0.02243098  0.34183590
   0.00000000  0.47803485  0.34373259
Direct configuration=    32
   0.00000000  0.00000000  0.00000000
   0.50000000  0.00000000  0.00000000
   0.00000000  0.50000000  0.00000000
   0.50000000  0.50000000  0.00000000
   0.25000000  0.25000000  0.09400000
   0.75000000  0.25000000  0.09400000
   0.25000000  0.75000000  0.09400000
   0.75000000  0.75000000  0.09400000
   0.00000000 -0.00174504  0.19612954
   0.50000000  0.01750382  0.18899508
   0.00000000  0.49726125  0.19757131
   0.50000000  0.48782892  0.18712368
   0.00000000 -0.02052755  0.34193163
   0.00000000  0.48049764  0.34391997
Direct configuration=    33
   0.00000000  0.00000000  0.00000000
   0.50000000  0.00000000  0.00000000
   0.00000000  0.50000000  0.00000000
   0.50000000  0.50000000  0.00000000
   0.25000000  0.25000000  0.09400000
   0.75000000  0.25000000  0.09400000
   0.25000000  0.75000000  0.09400000
   0.75000000  0.75000000  0.09400000
   0.00000000 -0.00187681  0.19616810
   0.50000000  0.01758879  0.18904783
   0.00000000  0.49732526  0.19752919
   0.50000000  0.48753003  0.18725295
   0.00000000 -0.02161481  0.34187695
   0.00000000  0.47909087  0.34381294
Direct configuration=    34
   0.00000000  0.00000000  0.00000000
   0.50000000  0.00000000  0.00000000
   0.00000000  0.50000000  0.00000000
   0.50000000  0.50000000  0.00000000
   0.25000000  0.25000000  0.09400000
   0.75000000  0.25000000  0.09400000
   0.25000000  0.75000000  0.09400000
   0.75000000  0.75000000  0.09400000
   0.00000000 -0.00224443  0.19612209
   0.50000000  0.01689661  0.18903614
   0.00000000  0.49764499  0.19760972
   0.50000000  0.48782262  0.18761135
   0.00000000 -0.01896535  0.34194353
   0.00000000  0.48195927  0.34380706
Direct configuration=    35
   0.00000000  0.00000000  0.00000000
   0.50000000  0.00000000  0.00000000
   0.00000000  0.50000000  0.00000000
   0.50000000  0.50000000  0.00000000
   0.25000000  0.25000000  0.09400000
   0.75000000  0.25000000  0.09400000
   0.25000000  0.75000000  0.09400000
   0.75000000  0.75000000  0.09400000
   0.00000000 -0.00291111  0.19603866
   0.50000000  0.01564138  0.18901493
   0.00000000  0.49822480  0.19775575
   0.50000000  0.48835323  0.18826128
   0.00000000 -0.01416067  0.34206427
   0.00000000  0.48716097  0.34379640
Direct configuration=    36
   0.00000000  0.00000000  0.00000000
   0.50000000  0.00000000  0.00000000
   0.00000000  0.50000000  0.00000000
   0.50000000  0.50000000  0.00000000
   0.25000000  0.25000000  0.09400000
   0.75000000  0.25000000  0.09400000
   0.25000000  0.75000000  0.09400000
   0.75000000  0.75000000  0.09400000
   0.00000000 -0.00424447  0.19587179
   0.50000000  0.01313090  0.18897250
   0.00000000  0.49938443  0.19804781
   0.50000000  0.48941445  0.18956114
   0.00000000 -0.00455132  0.34230574
   0.00000000  0.49756437  0.34377508
Direct configuration=    37
   0.00000000  0.00000000  0.00000000
   0.50000000  0.00000000  0.00000000
   0.00000000  0.50000000  0.00000000
   0.50000000  0.50000000  0.00000000
   0.25000000  0.25000000  0.09400000
   0.75000000  0.25000000  0.09400000
   0.25000000  0.75000000  0.09400000
   0.75000000  0.75000000  0.09400000
   0.00000000 -0.00352313  0.19596207
   0.50000000  0.01448906  0.18899545
   0.00000000  0.49875708  0.19788981
   0.50000000  0.48884034  0.18885792
   0.00000000 -0.00974993  0.34217510
   0.00000000  0.49193618  0.34378662
Direct configuration=    38
   0.00000000  0.00000000  0.00000000
   0.50000000  0.00000000  0.00000000
   0.00000000  0.50000000  0.00000000
   0.50000000  0.50000000  0.00000000
   0.25000000  0.25000000  0.09400000
   0.75000000  0.25000000  0.09400000
   0.25000000  0.75000000  0.09400000
   0.75000000  0.75000000  0.09400000
   0.00000000 -0.00326908  0.19599386
   0.50000000  0.01496739  0.18900354
   0.00000000  0.49853613  0.19783416
   0.50000000  0.48863814  0.18861025
   0.00000000 -0.01158084  0.34212910
   0.00000000  0.48995398  0.34379068
Direct configuration=    39
   0.00000000  0.00000000  0.00000000
   0.50000000  0.00000000  0.00000000
   0.00000000  0.50000000  0.00000000
   0.50000000  0.50000000  0.00000000
   0.25000000  0.25000000  0.09400000
   0.75000000  0.25000000  0.09400000
   0.25000000  0.75000000  0.09400000
   0.75000000  0.75000000  0.09400000
   0.00000000 -0.00290134  0.19638708
   0.50000000  0.01457349  0.18894954
   0.00000000  0.49884078  0.19756223
   0.50000000  0.48770873  0.18886275
   0.00000000 -0.00805419  0.34194377
   0.00000000  0.49194121  0.34375095
Direct configuration=    40
   0.00000000  0.00000000  0.00000000
   0.50000000  0.00000000  0.00000000
   0.00000000  0.50000000  0.00000000
   0.50000000  0.50000000  0.00000000
   0.25000000  0.25000000  0.09400000
   0.75000000  0.25000000  0.09400000
   0.25000000  0.75000000  0.09400000
   0.75000000  0.75000000  0.09400000
   0.00000000 -0.00267218  0.19663211
   0.50000000  0.01432804  0.18891589
   0.00000000  0.49903062  0.19739278
   0.50000000  0.48712958  0.18902010
   0.00000000 -0.00585658  0.34182829
   0.00000000  0.49317953  0.34372620
Direct configuration=    41
   0.00000000  0.00000000  0.00000000
   0.50000000  0.00000000  0.00000000
   0.00000000  0.50000000  0.00000000
   0.50000000  0.50000000  0.00000000
   0.25000000  0.25000000  0.09400000
   0.75000000  0.25000000  0.09400000
   0.25000000  0.75000000  0.09400000
   0.75000000  0.75000000  0.09400000
   0.00000000 -0.00183734  0.19655059
   0.50000000  0.01415461  0.18882758
   0.00000000  0.49957996  0.19711962
   0.50000000  0.48551521  0.18908484
   0.00000000 -0.00277462  0.34202716
   0.00000000  0.49560456  0.34343985
Direct configuration=    42
   0.00000000  0.00000000  0.00000000
   0.50000000  0.00000000  0.00000000
   0.00000000  0.50000000  0.00000000
   0.50000000  0.50000000  0.00000000
   0.25000000  0.25000000  0.09400000
   0.75000000  0.25000000  0.09400000
   0.25000000  0.75000000  0.09400000
   0.75000000  0.75000000  0.09400000
   0.00000000  0.00004303  0.19636698
   0.50000000  0.01376397  0.18862866
   0.00000000  0.50081728  0.19650438
   0.50000000  0.48187906  0.18923067
   0.00000000  0.00416710  0.34247510
   0.00000000  0.50106661  0.34279489
Direct configuration=    43
   0.00000000  0.00000000  0.00000000
   0.50000000  0.00000000  0.00000000
   0.00000000  0.50000000  0.00000000
   0.50000000  0.50000000  0.00000000
   0.25000000  0.25000000  0.09400000
   0.75000000  0.25000000  0.09400000
   0.25000000  0.75000000  0.09400000
   0.75000000  0.75000000  0.09400000
   0.00000000  0.00077120  0.19637649
   0.50000000  0.01405176  0.18875568
   0.00000000  0.50187388  0.19628385
   0.50000000  0.48023482  0.18939748
   0.00000000  0.00624586  0.34262378
   0.00000000  0.50529980  0.34222499
Direct configuration=    44
   0.00000000  0.00000000  0.00000000
   0.50000000  0.00000000  0.00000000
   0.00000000  0.50000000  0.00000000
   0.50000000  0.50000000  0.00000000
   0.25000000  0.25000000  0.09400000
   0.75000000  0.25000000  0.09400000
   0.25000000  0.75000000  0.09400000
   0.75000000  0.75000000  0.09400000
   0.00000000  0.00076744  0.19637644
   0.50000000  0.01405027  0.18875502
   0.00000000  0.50186842  0.19628499
   0.50000000  0.48024332  0.18939662
   0.00000000  0.00623511  0.34262301
   0.00000000  0.50527793  0.34222793
Direct configuration=    45
   0.00000000  0.00000000  0.00000000
   0.50000000  0.00000000  0.00000000
   0.00000000  0.50000000  0.00000000
   0.50000000  0.50000000  0.00000000
   0.25000000  0.25000000  0.09400000
   0.75000000  0.25000000  0.09400000
   0.25000000  0.75000000  0.09400000
   0.75000000  0.75000000  0.09400000
   0.00000000  0.00023756  0.19656303
   0.50000000  0.01435211  0.18897314
   0.00000000  0.50220023  0.19620557
   0.50000000  0.48112972  0.18951324
   0.00000000  0.00587258  0.34248429
   0.00000000  0.50603927  0.34216933
Direct configuration=    46
   0.00000000  0.00000000  0.00000000
   0.50000000  0.00000000  0.00000000
   0.00000000  0.50000000  0.00000000
   0.50000000  0.50000000  0.00000000
   0.25000000  0.25000000  0.09400000
   0.75000000  0.25000000  0.09400000
   0.25000000  0.75000000  0.09400000
   0.75000000  0.75000000  0.09400000
   0.00000000  0.00012525  0.19660258
   0.50000000  0.01441609  0.18901938
   0.00000000  0.50227056  0.19618873
   0.50000000  0.48131761  0.18953796
   0.00000000  0.00579573  0.34245489
   0.00000000  0.50620065  0.34215691
Direct configuration=    47
   0.00000000  0.00000000  0.00000000
   0.50000000  0.00000000  0.00000000
   0.00000000  0.50000000  0.00000000
   0.50000000  0.50000000  0.00000000
   0.25000000  0.25000000  0.09400000
   0.75000000  0.25000000  0.09400000
   0.25000000  0.75000000  0.09400000
   0.75000000  0.75000000  0.09400000
   0.00000000 -0.00015420  0.19650275
   0.50000000  0.01502151  0.18912528
   0.00000000  0.50226956  0.19614293
   0.50000000  0.48209861  0.18954063
   0.00000000  0.00583035  0.34250210
   0.00000000  0.50599539  0.34213191
Direct configuration=    48
   0.00000000  0.00000000  0.00000000
   0.50000000  0.00000000  0.00000000
   0.00000000  0.50000000  0.00000000
   0.50000000  0.50000000  0.00000000
   0.25000000  0.25000000  0.09400000
   0.75000000  0.25000000  0.09400000
   0.25000000  0.75000000  0.09400000
   0.75000000  0.75000000  0.09400000
   0.00000000 -0.00043044  0.19640407
   0.50000000  0.01561997  0.18922996
   0.00000000  0.50226857  0.19609765
   0.50000000  0.48287065  0.18954327
   0.00000000  0.00586458  0.34254877
   0.00000000  0.50579249  0.34210719
Direct configuration=    49
   0.00000000  0.00000000  0.00000000
   0.50000000  0.00000000  0.00000000
   0.00000000  0.50000000  0.00000000
   0.50000000  0.50000000  0.00000000
   0.25000000  0.25000000  0.09400000
   0.75000000  0.25000000  0.09400000
   0.25000000  0.75000000  0.09400000
   0.75000000  0.75000000  0.09400000
   0.00000000 -0.00048193  0.19647872
   0.50000000  0.01630079  0.18925384
   0.00000000  0.50199894  0.19614599
   0.50000000  0.48332928  0.18942659
   0.00000000  0.00574293  0.34242355
   0.00000000  0.50558450  0.34206841
Direct configuration=    50
   0.00000000  0.00000000  0.00000000
   0.50000000  0.00000000  0.00000000
   0.00000000  0.50000000  0.00000000
   0.50000000  0.50000000  0.00000000
   0.25000000  0.25000000  0.09400000
   0.75000000  0.25000000  0.09400000
   0.25000000  0.75000000  0.09400000
   0.75000000  0.75000000  0.09400000
   0.00000000 -0.00048507  0.19648327
   0.50000000  0.01634228  0.18925529
   0.00000000  0.50198250  0.19614893
   0.50000000  0.48335723  0.18941947
   0.00000000  0.00573552  0.34241592
   0.00000000  0.50557182  0.34206604
Direct configuration=    51
   0.00000000  0.00000000  0.00000000
   0.50000000  0.00000000  0.00000000
   0.00000000  0.50000000  0.00000000
   0.50000000  0.50000000  0.00000000
   0.25000000  0.25000000  0.09400000
   0.75000000  0.25000000  0.09400000
   0.25000000  0.75000000  0.09400000
   0.75000000  0.75000000  0.09400000
   0.00000000 -0.00049135  0.19649237
   0.50000000  0.01642527  0.18925820
   0.00000000  0.50194964  0.19615482
   0.50000000  0.48341314  0.18940525
   0.00000000  0.00572069  0.34240066
   0.00000000  0.50554647  0.34206132
Direct configuration=    52
   0.00000000  0.00000000  0.00000000
   0.50000000  0.00000000  0.00000000
   0.00000000  0.50000000  0.00000000
   0.50000000  0.50000000  0.00000000
   0.25000000  0.25000000  0.09400000
   0.75000000  0.25000000  0.09400000
   0.25000000  0.75000000  0.09400000
   0.75000000  0.75000000  0.09400000
   0.00000000 -0.00048704  0.19648612
   0.50000000  0.01636831  0.18925620
   0.00000000  0.50197219  0.19615078
   0.50000000  0.48337477  0.18941501
   0.00000000  0.00573087  0.34241113
   0.00000000  0.50556387  0.34206456
Direct configuration=    53
   0.00000000  0.00000000  0.00000000
   0.50000000  0.00000000  0.00000000
   0.00000000  0.50000000  0.00000000
   0.50000000  0.50000000  0.00000000
   0.25000000  0.25000000  0.09400000
   0.75000000  0.25000000  0.09400000
   0.25000000  0.75000000  0.09400000
   0.75000000  0.75000000  0.09400000
   0.00000000 -0.00048942  0.19648957
   0.50000000  0.01639978  0.18925731
   0.00000000  0.50195973  0.19615301
   0.50000000  0.48339596  0.18940962
   0.00000000  0.00572525  0.34240535
   0.00000000  0.50555426  0.34206277
Direct configuration=    54
   0.00000000  0.00000000  0.00000000
   0.50000000  0.00000000  0.00000000