   4   4   0   0
  0.2015385E+02  0.4319890E-09  0.4319890E-09  0.4319890E-09  0.5000000E-15
  1.000000000000000E-004
  CAR 
 Crystal                                 
     16.61433703     -4.97906861  301      0.17584784      1.00000000
     -4.979  0.0000E+00  0.0000E+00  0.0000E+00  0.0000E+00
     -4.907  0.0000E+00  0.0000E+00  0.0000E+00  0.0000E+00
     -4.835  0.0000E+00  0.0000E+00  0.0000E+00  0.0000E+00
     -4.763  0.0000E+00  0.0000E+00  0.0000E+00  0.0000E+00
     -4.691  0.0000E+00  0.0000E+00  0.0000E+00  0.0000E+00
     -4.619  0.0000E+00  0.0000E+00  0.0000E+00  0.0000E+00
     -4.547  0.0000E+00  0.0000E+00  0.0000E+00  0.0000E+00
     -4.475  0.0000E+00  0.0000E+00  0.0000E+00  0.0000E+00
     -4.403  0.0000E+00  0.0000E+00  0.0000E+00  0.0000E+00
     -4.331  0.0000E+00  0.0000E+00  0.0000E+00  0.0000E+00
     -4.259  0.0000E+00  0.0000E+00  0.0000E+00  0.0000E+00
     -4.187  0.0000E+00  0.0000E+00  0.0000E+00  0.0000E+00
     -4.115  0.0000E+00  0.0000E+00  0.0000E+00  0.0000E+00
     -4.043  0.1443E-33  0.1373E-33  0.1039E-34  0.9882E-35
     -3.971  0.1630E-28  0.1558E-28  0.1173E-29  0.1121E-29
     -3.899  0.6354E-24  0.6097E-24  0.4573E-25  0.4389E-25
     -3.827  0.8484E-20  0.8178E-20  0.6107E-21  0.5887E-21
     -3.755  0.3852E-16  0.3730E-16  0.2773E-17  0.2685E-17
     -3.683  0.5839E-13  0.5679E-13  0.4206E-14  0.4090E-14
     -3.611  0.2888E-10  0.2822E-10  0.2083E-11  0.2035E-11
     -3.540  0.4448E-08  0.4368E-08  0.3222E-09  0.3164E-09
     -3.468  0.1911E-06  0.1887E-06  0.1408E-07  0.1390E-07
     -3.396  0.1477E-05  0.1473E-05  0.1204E-06  0.1199E-06
     -3.324 -0.7672E-05 -0.7575E-05 -0.4318E-06 -0.4253E-06
     -3.252 -0.2583E-05 -0.2951E-05 -0.6178E-06 -0.6377E-06
     -3.180  0.2029E-03  0.2019E-03  0.1398E-04  0.1390E-04
     -3.108  0.1842E-03  0.1854E-03  0.2724E-04  0.2724E-04
     -3.036 -0.1170E-03 -0.1169E-03  0.1882E-04  0.1883E-04
     -2.964  0.6951E-03  0.6889E-03  0.6885E-04  0.6841E-04
     -2.892  0.1501E-02  0.1503E-02  0.1769E-03  0.1766E-03
     -2.820  0.4802E-04  0.5356E-04  0.1804E-03  0.1805E-03
     -2.748  0.4214E-03  0.4118E-03  0.2107E-03  0.2101E-03
     -2.676  0.3007E-02  0.3003E-02  0.4271E-03  0.4263E-03
     -2.604  0.1282E-02  0.1295E-02  0.5194E-03  0.5195E-03
     -2.532 -0.2333E-03 -0.2359E-03  0.5026E-03  0.5025E-03
     -2.460  0.1606E-02  0.1599E-02  0.6182E-03  0.6176E-03
     -2.388  0.1508E-02  0.1516E-02  0.7268E-03  0.7267E-03
     -2.316 -0.1663E-03 -0.1638E-03  0.7148E-03  0.7149E-03
     -2.244  0.5444E-03  0.5377E-03  0.7540E-03  0.7536E-03
     -2.172  0.1561E-02  0.1563E-02  0.8664E-03  0.8661E-03
     -2.100 -0.2331E-04 -0.1606E-04  0.8647E-03  0.8649E-03
     -2.028  0.6756E-03  0.6588E-03  0.9133E-03  0.9123E-03
     -1.956  0.5878E-02  0.5867E-02  0.1336E-02  0.1335E-02
     -1.884  0.2844E-02  0.2871E-02  0.1541E-02  0.1541E-02
     -1.812 -0.4338E-03 -0.4413E-03  0.1510E-02  0.1509E-02
     -1.740  0.4842E-02  0.4821E-02  0.1858E-02  0.1856E-02
     -1.668  0.4478E-02  0.4500E-02  0.2181E-02  0.2180E-02
     -1.596 -0.1706E-03 -0.1634E-03  0.2168E-02  0.2169E-02
     -1.524 -0.1507E-03 -0.1529E-03  0.2158E-02  0.2158E-02
     -1.452  0.5063E-04  0.5085E-04  0.2161E-02  0.2161E-02
     -1.380 -0.1667E-03 -0.1655E-03  0.2149E-02  0.2149E-02
     -1.308  0.3744E-03  0.3664E-03  0.2176E-02  0.2176E-02
     -1.236  0.2940E-02  0.2934E-02  0.2388E-02  0.2387E-02
     -1.164  0.1182E-02  0.1197E-02  0.2473E-02  0.2473E-02
     -1.092  0.5406E-03  0.5244E-03  0.2512E-02  0.2511E-02
     -1.020  0.6656E-02  0.6640E-02  0.2991E-02  0.2989E-02
     -0.948  0.4401E-02  0.4428E-02  0.3308E-02  0.3307E-02
     -0.876 -0.6748E-03 -0.6676E-03  0.3259E-02  0.3259E-02
     -0.804  0.1231E-02  0.1210E-02  0.3348E-02  0.3346E-02
     -0.732  0.6148E-02  0.6144E-02  0.3790E-02  0.3789E-02
     -0.660  0.1949E-02  0.1974E-02  0.3931E-02  0.3931E-02
     -0.588  0.3375E-03  0.3216E-03  0.3955E-02  0.3954E-02
     -0.516  0.5706E-02  0.5694E-02  0.4366E-02  0.4364E-02
     -0.444  0.4008E-02  0.4024E-02  0.4654E-02  0.4653E-02
     -0.372  0.1514E-02  0.1519E-02  0.4763E-02  0.4763E-02
     -0.300  0.2357E-03  0.2396E-03  0.4780E-02  0.4780E-02
     -0.229 -0.7660E-04 -0.7663E-04  0.4774E-02  0.4775E-02
     -0.157 -0.4041E-03 -0.4028E-03  0.4745E-02  0.4746E-02
     -0.085  0.1632E-02  0.1612E-02  0.4863E-02  0.4862E-02
     -0.013  0.5526E-02  0.5529E-02  0.5261E-02  0.5259E-02
      0.059  0.2950E-02  0.2945E-02  0.5473E-02  0.5471E-02
      0.131  0.1067E-01  0.1064E-01  0.6241E-02  0.6237E-02
      0.203  0.7136E-02  0.7182E-02  0.6754E-02  0.6754E-02
      0.275 -0.7138E-03 -0.7062E-03  0.6703E-02  0.6703E-02
      0.347 -0.5771E-03 -0.5787E-03  0.6661E-02  0.6662E-02
      0.419  0.1426E-02  0.1407E-02  0.6764E-02  0.6763E-02
      0.491  0.6063E-02  0.6059E-02  0.7201E-02  0.7199E-02
      0.563  0.2200E-02  0.2221E-02  0.7359E-02  0.7359E-02
      0.635  0.5428E-03  0.5370E-03  0.7398E-02  0.7397E-02
      0.707  0.1338E-02  0.1342E-02  0.7494E-02  0.7494E-02
      0.779 -0.3177E-03 -0.3130E-03  0.7471E-02  0.7472E-02
      0.851  0.1167E-02  0.1148E-02  0.7555E-02  0.7554E-02
      0.923  0.5940E-02  0.5937E-02  0.7983E-02  0.7982E-02
      0.995  0.1878E-02  0.1897E-02  0.8118E-02  0.8118E-02
      1.067  0.4730E-02  0.4690E-02  0.8459E-02  0.8456E-02
      1.139  0.1284E-01  0.1284E-01  0.9383E-02  0.9379E-02
      1.211  0.5497E-02  0.5538E-02  0.9778E-02  0.9778E-02
      1.283 -0.5505E-03 -0.5459E-03  0.9739E-02  0.9739E-02
      1.355 -0.1098E-03 -0.1123E-03  0.9731E-02  0.9731E-02
      1.427  0.1537E-03  0.1537E-03  0.9742E-02  0.9742E-02
      1.499 -0.5920E-03 -0.5853E-03  0.9699E-02  0.9700E-02
      1.571 -0.1112E-04 -0.3755E-04  0.9698E-02  0.9697E-02
      1.643  0.1451E-01  0.1445E-01  0.1074E-01  0.1074E-01
      1.715  0.1346E-01  0.1352E-01  0.1171E-01  0.1171E-01
      1.787 -0.4648E-03 -0.4430E-03  0.1168E-01  0.1168E-01
      1.859 -0.4630E-03 -0.4704E-03  0.1164E-01  0.1164E-01
      1.931  0.7525E-03  0.7508E-03  0.1170E-01  0.1170E-01
      2.003  0.5368E-03  0.5394E-03  0.1174E-01  0.1174E-01
      2.075 -0.6190E-04 -0.6065E-04  0.1173E-01  0.1173E-01
      2.147 -0.2268E-03 -0.2279E-03  0.1172E-01  0.1172E-01
      2.219  0.1591E-02  0.1581E-02  0.1183E-01  0.1183E-01
      2.291  0.2894E-02  0.2899E-02  0.1204E-01  0.1204E-01
      2.363  0.3559E-03  0.3629E-03  0.1207E-01  0.1207E-01
      2.435 -0.3664E-03 -0.3666E-03  0.1204E-01  0.1204E-01
      2.507  0.6027E-03  0.5945E-03  0.1208E-01  0.1208E-01
      2.579  0.3055E-02  0.3052E-02  0.1230E-01  0.1230E-01
      2.651  0.1066E-02  0.1079E-02  0.1238E-01  0.1238E-01
      2.723 -0.2748E-03 -0.2832E-03  0.1236E-01  0.1236E-01
      2.795  0.4779E-02  0.4759E-02  0.1270E-01  0.1270E-01
      2.867  0.4572E-02  0.4593E-02  0.1303E-01  0.1303E-01
      2.939 -0.1236E-03 -0.1161E-03  0.1302E-01  0.1302E-01
      3.010 -0.1814E-03 -0.1830E-03  0.1301E-01  0.1301E-01
      3.082 -0.1919E-03 -0.1922E-03  0.1300E-01  0.1300E-01
      3.154  0.1361E-02  0.1350E-02  0.1309E-01  0.1309E-01
      3.226  0.2996E-02  0.3000E-02  0.1331E-01  0.1331E-01
      3.298  0.5622E-03  0.5700E-03  0.1335E-01  0.1335E-01
      3.370 -0.6039E-03 -0.6015E-03  0.1331E-01  0.1331E-01
      3.442  0.4668E-03  0.4499E-03  0.1334E-01  0.1334E-01
      3.514  0.9022E-02  0.8992E-02  0.1399E-01  0.1399E-01
      3.586  0.8288E-02  0.8317E-02  0.1459E-01  0.1459E-01
      3.658  0.3516E-02  0.3510E-02  0.1484E-01  0.1484E-01
      3.730  0.5343E-02  0.5353E-02  0.1522E-01  0.1522E-01
      3.802 -0.2215E-03 -0.2073E-03  0.1521E-01  0.1521E-01
      3.874  0.4256E-02  0.4212E-02  0.1551E-01  0.1551E-01
      3.946  0.1222E-01  0.1223E-01  0.1639E-01  0.1639E-01
      4.018  0.2637E-02  0.2674E-02  0.1658E-01  0.1658E-01
      4.090 -0.9272E-03 -0.9338E-03  0.1652E-01  0.1652E-01
      4.162  0.2242E-02  0.2229E-02  0.1668E-01  0.1668E-01
      4.234  0.2519E-02  0.2529E-02  0.1686E-01  0.1686E-01
      4.306 -0.1382E-03 -0.1322E-03  0.1685E-01  0.1685E-01
      4.378  0.1596E-03  0.1525E-03  0.1686E-01  0.1686E-01
      4.450  0.2858E-02  0.2850E-02  0.1707E-01  0.1707E-01
      4.522  0.3228E-02  0.3231E-02  0.1730E-01  0.1730E-01
      4.594  0.1274E-02  0.1285E-02  0.1739E-01  0.1739E-01
      4.666 -0.1155E-02 -0.1155E-02  0.1731E-01  0.1731E-01
      4.738  0.6976E-02  0.6918E-02  0.1781E-01  0.1781E-01
      4.810  0.1717E-01  0.1718E-01  0.1905E-01  0.1904E-01
      4.882  0.4441E-02  0.4492E-02  0.1937E-01  0.1937E-01
      4.954  0.2792E-03  0.2643E-03  0.1939E-01  0.1939E-01
      5.026  0.5478E-02  0.5462E-02  0.1978E-01  0.1978E-01
      5.098  0.6979E-02  0.6992E-02  0.2028E-01  0.2028E-01
      5.170  0.9753E-03  0.9951E-03  0.2035E-01  0.2035E-01
      5.242  0.2896E-03  0.2735E-03  0.2037E-01  0.2037E-01
      5.314  0.5818E-02  0.5807E-02  0.2079E-01  0.2079E-01
      5.386  0.3151E-02  0.3173E-02  0.2102E-01  0.2102E-01
      5.458 -0.4257E-03 -0.4237E-03  0.2099E-01  0.2099E-01
      5.530 -0.5344E-04 -0.5477E-04  0.2098E-01  0.2098E-01
      5.602  0.2576E-04  0.2591E-04  0.2099E-01  0.2099E-01
      5.674  0.3221E-05  0.3228E-05  0.2099E-01  0.2099E-01
      5.746  0.2220E-04  0.2206E-04  0.2099E-01  0.2099E-01
      5.818 -0.2432E-04 -0.2336E-04  0.2099E-01  0.2099E-01
      5.890 -0.4372E-03 -0.4379E-03  0.2096E-01  0.2096E-01
      5.962  0.2612E-02  0.2592E-02  0.2114E-01  0.2114E-01
      6.034  0.5540E-02  0.5547E-02  0.2154E-01  0.2154E-01
      6.106  0.3264E-02  0.3259E-02  0.2178E-01  0.2178E-01
      6.178  0.5717E-02  0.5718E-02  0.2219E-01  0.2219E-01
      6.250  0.1497E-02  0.1515E-02  0.2230E-01  0.2230E-01
      6.321 -0.4643E-03 -0.4644E-03  0.2226E-01  0.2226E-01
      6.393 -0.3099E-03 -0.3127E-03  0.2224E-01  0.2224E-01
      6.465  0.2766E-02  0.2749E-02  0.2244E-01  0.2244E-01
      6.537  0.7069E-02  0.7049E-02  0.2295E-01  0.2295E-01
      6.609  0.1203E-01  0.1202E-01  0.2381E-01  0.2381E-01
      6.681  0.5669E-02  0.5713E-02  0.2422E-01  0.2422E-01
      6.753  0.2044E-02  0.2023E-02  0.2437E-01  0.2437E-01
      6.825  0.8447E-02  0.8435E-02  0.2498E-01  0.2497E-01
      6.897  0.6204E-02  0.6230E-02  0.2542E-01  0.2542E-01
      6.969  0.8384E-03  0.8493E-03  0.2548E-01  0.2548E-01
      7.041 -0.2691E-03 -0.2702E-03  0.2546E-01  0.2546E-01
      7.113  0.1447E-04  0.1419E-04  0.2547E-01  0.2547E-01
      7.185  0.1336E-04  0.1346E-04  0.2547E-01  0.2547E-01
      7.257  0.4150E-05  0.4129E-05  0.2547E-01  0.2547E-01
      7.329  0.1829E-04  0.1830E-04  0.2547E-01  0.2547E-01
      7.401 -0.1326E-03 -0.1317E-03  0.2546E-01  0.2546E-01
      7.473  0.1405E-03  0.1358E-03  0.2547E-01  0.2547E-01
      7.545  0.2682E-02  0.2675E-02  0.2566E-01  0.2566E-01
      7.617  0.1932E-02  0.1941E-02  0.2580E-01  0.2580E-01
      7.689 -0.1490E-03 -0.1473E-03  0.2579E-01  0.2579E-01
      7.761 -0.1280E-04 -0.1321E-04  0.2579E-01  0.2579E-01
      7.833 -0.4288E-03 -0.4262E-03  0.2576E-01  0.2576E-01
      7.905  0.1028E-02  0.1009E-02  0.2583E-01  0.2583E-01
      7.977  0.7602E-02  0.7589E-02  0.2638E-01  0.2638E-01
      8.049  0.4186E-02  0.4214E-02  0.2668E-01  0.2668E-01
      8.121 -0.5253E-03 -0.5224E-03  0.2664E-01  0.2664E-01
      8.193 -0.7955E-04 -0.8127E-04  0.2664E-01  0.2664E-01
      8.265  0.3434E-04  0.3453E-04  0.2664E-01  0.2664E-01
      8.337  0.2652E-05  0.2684E-05  0.2664E-01  0.2664E-01
      8.409  0.4533E-07  0.4609E-07  0.2664E-01  0.2664E-01
      8.481  0.1655E-07  0.1634E-07  0.2664E-01  0.2664E-01
      8.553  0.4504E-06  0.4467E-06  0.2664E-01  0.2664E-01
      8.625  0.1258E-05  0.1267E-05  0.2664E-01  0.2664E-01
      8.697 -0.1533E-04 -0.1526E-04  0.2664E-01  0.2664E-01
      8.769  0.3813E-04  0.3755E-04  0.2664E-01  0.2664E-01
      8.841  0.2467E-03  0.2464E-03  0.2666E-01  0.2666E-01
      8.913  0.1184E-03  0.1192E-03  0.2667E-01  0.2667E-01
      8.985 -0.1864E-04 -0.1859E-04  0.2667E-01  0.2667E-01
      9.057 -0.1531E-05 -0.1574E-05  0.2667E-01  0.2667E-01
      9.129  0.9875E-06  0.9931E-06  0.2667E-01  0.2667E-01
      9.201  0.6504E-07  0.6579E-07  0.2667E-01  0.2667E-01
      9.273  0.9765E-09  0.9920E-09  0.2667E-01  0.2667E-01
      9.345  0.4295E-11  0.4380E-11  0.2667E-01  0.2667E-01
      9.417  0.5995E-14  0.6137E-14  0.2667E-01  0.2667E-01
      9.489  0.2756E-17  0.2838E-17  0.2667E-01  0.2667E-01
      9.560  0.0000E+00  0.0000E+00  0.2667E-01  0.2667E-01
      9.632  0.0000E+00  0.0000E+00  0.2667E-01  0.2667E-01
      9.704  0.0000E+00  0.0000E+00  0.2667E-01  0.2667E-01
      9.776  0.0000E+00  0.0000E+00  0.2667E-01  0.2667E-01
      9.848  0.0000E+00  0.0000E+00  0.2667E-01  0.2667E-01
      9.920  0.0000E+00  0.0000E+00  0.2667E-01  0.2667E-01
      9.992  0.0000E+00  0.0000E+00  0.2667E-01  0.2667E-01
     10.064  0.0000E+00  0.0000E+00  0.2667E-01  0.2667E-01
     10.136  0.0000E+00  0.0000E+00  0.2667E-01  0.2667E-01
     10.208  0.0000E+00  0.0000E+00  0.2667E-01  0.2667E-01
     10.280  0.0000E+00  0.0000E+00  0.2667E-01  0.2667E-01
     10.352  0.0000E+00  0.0000E+00  0.2667E-01  0.2667E-01
     10.424  0.0000E+00  0.0000E+00  0.2667E-01  0.2667E-01
     10.496  0.0000E+00  0.0000E+00  0.2667E-01  0.2667E-01
     10.568  0.0000E+00  0.0000E+00  0.2667E-01  0.2667E-01
     10.640  0.0000E+00  0.0000E+00  0.2667E-01  0.2667E-01
     10.712  0.0000E+00  0.0000E+00  0.2667E-01  0.2667E-01
     10.784  0.0000E+00  0.0000E+00  0.2667E-01  0.2667E-01
     10.856  0.0000E+00  0.0000E+00  0.2667E-01  0.2667E-01
     10.928  0.0000E+00  0.0000E+00  0.2667E-01  0.2667E-01
     11.000  0.0000E+00  0.0000E+00  0.2667E-01  0.2667E-01
     11.072  0.0000E+00  0.0000E+00  0.2667E-01  0.2667E-01
     11.144  0.0000E+00  0.0000E+00  0.2667E-01  0.2667E-01
     11.216  0.0000E+00  0.0000E+00  0.2667E-01  0.2667E-01
     11.288  0.0000E+00  0.0000E+00  0.2667E-01  0.2667E-01
     11.360  0.0000E+00  0.0000E+00  0.2667E-01  0.2667E-01
     11.432  0.0000E+00  0.0000E+00  0.2667E-01  0.2667E-01
     11.504  0.0000E+00  0.0000E+00  0.2667E-01  0.2667E-01
     11.576  0.0000E+00  0.0000E+00  0.2667E-01  0.2667E-01
     11.648  0.0000E+00  0.0000E+00  0.2667E-01  0.2667E-01
     11.720  0.0000E+00  0.0000E+00  0.2667E-01  0.2667E-01
     11.792  0.0000E+00  0.0000E+00  0.2667E-01  0.2667E-01
     11.864  0.0000E+00  0.0000E+00  0.2667E-01  0.2667E-01
     11.936  0.0000E+00  0.0000E+00  0.2667E-01  0.2667E-01
     12.008  0.0000E+00  0.0000E+00  0.2667E-01  0.2667E-01
     12.080  0.0000E+00  0.0000E+00  0.2667E-01  0.2667E-01
     12.152  0.0000E+00  0.0000E+00  0.2667E-01  0.2667E-01
     12.224  0.0000E+00  0.0000E+00  0.2667E-01  0.2667E-01
     12.296  0.0000E+00  0.0000E+00  0.2667E-01  0.2667E-01
     12.368  0.0000E+00  0.0000E+00  0.2667E-01  0.2667E-01
     12.440  0.0000E+00  0.0000E+00  0.2667E-01  0.2667E-01
     12.512  0.0000E+00  0.0000E+00  0.2667E-01  0.2667E-01
     12.584  0.0000E+00  0.0000E+00  0.2667E-01  0.2667E-01
     12.656  0.0000E+00  0.0000E+00  0.2667E-01  0.2667E-01
     12.728  0.0000E+00  0.0000E+00  0.2667E-01  0.2667E-01
     12.800  0.0000E+00  0.0000E+00  0.2667E-01  0.2667E-01
     12.871  0.0000E+00  0.0000E+00  0.2667E-01  0.2667E-01
     12.943  0.0000E+00  0.0000E+00  0.2667E-01  0.2667E-01
     13.015  0.0000E+00  0.0000E+00  0.2667E-01  0.2667E-01
     13.087  0.0000E+00  0.0000E+00  0.2667E-01  0.2667E-01
     13.159  0.0000E+00  0.0000E+00  0.2667E-01  0.2667E-01
     13.231  0.0000E+00  0.0000E+00  0.2667E-01  0.2667E-01
     13.303  0.0000E+00  0.0000E+00  0.2667E-01  0.2667E-01
     13.375  0.0000E+00  0.0000E+00  0.2667E-01  0.2667E-01
     13.447  0.0000E+00  0.0000E+00  0.2667E-01  0.2667E-01
     13.519  0.0000E+00  0.0000E+00  0.2667E-01  0.2667E-01
     13.591  0.0000E+00  0.0000E+00  0.2667E-01  0.2667E-01
     13.663  0.0000E+00  0.0000E+00  0.2667E-01  0.2667E-01
     13.735  0.0000E+00  0.0000E+00  0.2667E-01  0.2667E-01
     13.807  0.0000E+00  0.0000E+00  0.2667E-01  0.2667E-01
     13.879  0.0000E+00  0.0000E+00  0.2667E-01  0.2667E-01
     13.951  0.0000E+00  0.0000E+00  0.2667E-01  0.2667E-01
     14.023  0.0000E+00  0.0000E+00  0.2667E-01  0.2667E-01
     14.095  0.0000E+00  0.0000E+00  0.2667E-01  0.2667E-01
     14.167  0.0000E+00  0.0000E+00  0.2667E-01  0.2667E-01
     14.239  0.0000E+00  0.0000E+00  0.2667E-01  0.2667E-01
     14.311  0.0000E+00  0.0000E+00  0.2667E-01  0.2667E-01
     14.383  0.0000E+00  0.0000E+00  0.2667E-01  0.2667E-01
     14.455  0.0000E+00  0.0000E+00  0.2667E-01  0.2667E-01
     14.527  0.0000E+00  0.0000E+00  0.2667E-01  0.2667E-01
     14.599  0.0000E+00  0.0000E+00  0.2667E-01  0.2667E-01
     14.671  0.0000E+00  0.0000E+00  0.2667E-01  0.2667E-01
     14.743  0.0000E+00  0.0000E+00  0.2667E-01  0.2667E-01
     14.815  0.0000E+00  0.0000E+00  0.2667E-01  0.2667E-01
     14.887  0.0000E+00  0.0000E+00  0.2667E-01  0.2667E-01
     14.959  0.0000E+00  0.0000E+00  0.2667E-01  0.2667E-01
     15.031  0.0000E+00  0.0000E+00  0.2667E-01  0.2667E-01
     15.103  0.0000E+00  0.0000E+00  0.2667E-01  0.2667E-01
     15.175  0.0000E+00  0.0000E+00  0.2667E-01  0.2667E-01
     15.247  0.0000E+00  0.0000E+00  0.2667E-01  0.2667E-01
     15.319  0.0000E+00  0.0000E+00  0.2667E-01  0.2667E-01
     15.391  0.0000E+00  0.0000E+00  0.2667E-01  0.2667E-01
     15.463  0.0000E+00  0.0000E+00  0.2667E-01  0.2667E-01
     15.535  0.0000E+00  0.0000E+00  0.2667E-01  0.2667E-01
     15.607  0.0000E+00  0.0000E+00  0.2667E-01  0.2667E-01
     15.679  0.0000E+00  0.0000E+00  0.2667E-01  0.2667E-01
     15.751  0.0000E+00  0.0000E+00  0.2667E-01  0.2667E-01
     15.823  0.0000E+00  0.0000E+00  0.2667E-01  0.2667E-01
     15.895  0.0000E+00  0.0000E+00  0.2667E-01  0.2667E-01
     15.967  0.0000E+00  0.0000E+00  0.2667E-01  0.2667E-01
     16.039  0.0000E+00  0.0000E+00  0.2667E-01  0.2667E-01
     16.110  0.0000E+00  0.0000E+00  0.2667E-01  0.2667E-01
     16.182  0.0000E+00  0.0000E+00  0.2667E-01  0.2667E-01
     16.254  0.0000E+00  0.0000E+00  0.2667E-01  0.2667E-01
     16.326  0.0000E+00  0.0000E+00  0.2667E-01  0.2667E-01
     16.398  0.0000E+00  0.0000E+00  0.2667E-01  0.2667E-01
     16.470  0.0000E+00  0.0000E+00  0.2667E-01  0.2667E-01
     16.542  0.0000E+00  0.0000E+00  0.2667E-01  0.2667E-01
     16.614  0.0000E+00  0.0000E+00  0.2667E-01  0.2667E-01
