    4    4  300    2
  0.2015385E+02  0.4319890E-09  0.4319890E-09  0.4319890E-09  0.5000000E-15
  1.000000000000000E-004
  CAR 
 Crystal                                 
    4   10    8
 
  0.0000000E+00  0.0000000E+00  0.0000000E+00  0.8000000E-02
   1       -3.180341     -3.180045
   2        1.923190      1.923441
   3        1.923190      1.923441
   4        1.923190      1.923441
   5        5.078139      5.078467
   6        5.078139      5.078467
   7        5.078139      5.078467
   8        8.817866      8.818101
 
  0.2000000E+00  0.0000000E+00  0.0000000E+00  0.4800000E-01
   1       -2.940178     -2.939884
   2        0.644476      0.644749
   3        2.237558      2.237809
   4        2.237558      2.237809
   5        4.966233      4.966555
   6        4.966233      4.966555
   7        6.872382      6.872628
   8        6.872414      6.872629
 
  0.4000000E+00  0.0000000E+00  0.0000000E+00  0.4800000E-01
   1       -2.215045     -2.214753
   2       -1.000685     -1.000399
   3        3.178852      3.179102
   4        3.178852      3.179102
   5        4.738355      4.738604
   6        4.738355      4.738604
   7        4.800316      4.800630
   8        4.800316      4.800630
 
  0.2000000E+00  0.2000000E+00  0.0000000E+00  0.9600000E-01
   1       -2.700444     -2.700150
   2        0.895978      0.896252
   3        0.895978      0.896252
   4        2.551794      2.552045
   5        4.165975      4.166270
   6        6.751810      6.752092
   7        6.807162      6.807458
   8        6.807162      6.807462
 
  0.4000000E+00  0.2000000E+00  0.0000000E+00  0.1920000E+00
   1       -1.976387     -1.976096
   2       -0.761989     -0.761704
   3        1.633881      1.634157
   4        2.792984      2.793264
   5        3.492649      3.492899
   6        5.051180      5.051429
   7        6.588208      6.588499
   8        6.592589      6.592878
 
  0.4000000E+00  0.4000000E+00  0.0000000E+00  0.9600000E-01
   1       -1.255776     -1.255487
   2       -0.045226     -0.044942
   3       -0.045226     -0.044942
   4        1.147699      1.147981
   5        4.432005      4.432254
   6        5.987150      5.987397
   7        5.987150      5.987397
   8        7.534634      7.534856
 
  0.2000000E+00  0.2000000E+00  0.2000000E+00  0.6400000E-01
   1       -2.462220     -2.461928
   2        1.116102      1.116377
   3        1.116102      1.116377
   4        1.116102      1.116377
   5        5.294502      5.294768
   6        5.294502      5.294769
   7        5.294502      5.294769
   8        7.941677      7.941960
 
  0.4000000E+00  0.2000000E+00  0.2000000E+00  0.1920000E+00
   1       -1.743068     -1.742778
   2       -0.537529     -0.537244
   3        1.643759      1.644037
   4        1.643759      1.644037
   5        3.903910      3.904172
   6        3.903910      3.904172
   7        6.481263      6.481522
   8        7.962904      7.963157
 
  0.4000000E+00  0.4000000E+00  0.2000000E+00  0.1920000E+00
   1       -1.042210     -1.041923
   2        0.117217      0.117501
   3        0.117217      0.117501
   4        1.070611      1.070894
   5        3.676274      3.676537
   6        4.767716      4.767980
   7        4.767716      4.767980
   8        6.136542      6.136804
 
  0.4000000E+00  0.4000000E+00  0.4000000E+00  0.6400000E-01
   1       -0.423653     -0.423368
   2        0.461443      0.461726
   3        0.461443      0.461726
   4        0.461443      0.461726
   5        3.532927      3.533198
   6        3.532927      3.533198
   7        3.532927      3.533198
   8        4.522582      4.522851
