       N       E                     dE             d eps       ncg     rms          rms(c)
DAV:   1    -0.513257457310E+01   -0.51326E+01   -0.10606E+03   328   0.252E+02
DAV:   2    -0.679780282908E+01   -0.16652E+01   -0.15428E+01   488   0.150E+01
DAV:   3    -0.681677951345E+01   -0.18977E-01   -0.18914E-01   352   0.207E+00
DAV:   4    -0.681683978639E+01   -0.60273E-04   -0.60273E-04   464   0.110E-01
DAV:   5    -0.681684007612E+01   -0.28973E-06   -0.28968E-06   392   0.671E-03
DAV:   6    -0.681684008205E+01   -0.59309E-08   -0.59531E-08   392   0.870E-04
DAV:   7    -0.681684008244E+01   -0.38226E-09   -0.40304E-09   312   0.207E-04
DAV:   8    -0.681684008255E+01   -0.11742E-09   -0.95928E-10   320   0.934E-05
DAV:   9    -0.681684008259E+01   -0.31861E-10   -0.26368E-10   296   0.488E-05
DAV:  10    -0.681684008259E+01   -0.86970E-11   -0.73278E-11   288   0.256E-05    0.274E+00
RMM:  11    -0.746124896241E+01   -0.64441E+00   -0.12066E-01   320   0.185E+00    0.101E+00
RMM:  12    -0.763558419514E+01   -0.17434E+00   -0.14212E-01   320   0.178E+00    0.203E-01
RMM:  13    -0.763859430255E+01   -0.30101E-02   -0.38137E-03   320   0.404E-01    0.996E-02
RMM:  14    -0.763858533970E+01    0.89628E-05   -0.61389E-04   318   0.122E-01
   1 F= -.76385853E+01 E0= -.76387719E+01  d E =-.763859E+01  mag=     0.0055
       N       E                     dE             d eps       ncg     rms          rms(c)
DAV:   1    -0.763888209234E+01   -0.28779E-03   -0.78250E-04   376   0.186E-01    0.680E-03
RMM:   2    -0.763889459866E+01   -0.12506E-04   -0.55839E-05   163   0.628E-02    0.349E-03
RMM:   3    -0.763889513000E+01   -0.53134E-06   -0.22933E-06   159   0.110E-02    0.126E-03
RMM:   4    -0.763889425093E+01    0.87907E-06   -0.13333E-07     6   0.446E-03
   2 F= -.76388943E+01 E0= -.76390811E+01  d E =-.308911E-03  mag=     0.0018
       N       E                     dE             d eps       ncg     rms          rms(c)
DAV:   1    -0.763905038000E+01   -0.15525E-03   -0.52797E-04   336   0.118E-01    0.396E-03
RMM:   2    -0.763904922274E+01    0.11573E-05   -0.28787E-06   104   0.146E-02    0.249E-03
RMM:   3    -0.763904777564E+01    0.14471E-05   -0.89417E-41     5   0.513E-03    0.306E-04
RMM:   4    -0.763904783198E+01   -0.56336E-07   -0.18934E-98     4   0.485E-03
   3 F= -.76390478E+01 E0= -.76392355E+01  d E =-.462492E-03  mag=     0.0004
