 vasp.5.3.3 18Dez12 (build Sep  7 2015 22:32:56) complex                        
  
 executed on             LinuxIFC date 2022.12.22  18:47:16
 running on    1 total cores
 distrk:  each k-point on    1 cores,    1 groups
 distr:  one band on NCORES_PER_BAND=   1 cores,    1 groups


--------------------------------------------------------------------------------------------------------


 INCAR:
 POTCAR:    PAW_PBE Li 17Jan2003                  
 POTCAR:    PAW_PBE Li 17Jan2003                  
   VRHFIN =Li: s1p0                                                             
   LEXCH  = PE                                                                  
   EATOM  =     5.3001 eV,    0.3895 Ry                                         
                                                                                
   TITEL  = PAW_PBE Li 17Jan2003                                                
   LULTRA =        F    use ultrasoft PP ?                                      
   IUNSCR =        1    unscreen: 0-lin 1-nonlin 2-no                           
   RPACOR =    1.500    partial core radius                                     
   POMASS =    7.010; ZVAL   =    1.000    mass and valenz                      
   RCORE  =    2.050    outmost cutoff radius                                   
   RWIGS  =    2.600; RWIGS  =    1.376    wigner-seitz radius (au A)           
   ENMAX  =  140.000; ENMIN  =  100.000 eV                                      
   ICORE  =        2    local potential                                         
   LCOR   =        T    correct aug charges                                     
   LPAW   =        T    paw PP                                                  
   EAUG   =  331.638                                                            
   DEXC   =    0.000                                                            
   RMAX   =    2.098    core radius for proj-oper                               
   RAUG   =    1.300    factor for augmentation sphere                          
   RDEP   =    2.094    radius for radial grids                                 
   RDEPT  =    1.810    core radius for aug-charge                              
                                                                                
   Atomic configuration                                                         
    4 entries                                                                   
     n  l   j            E        occ.                                          
     1  0  0.50       -51.8549   2.0000                                         
     2  0  0.50        -2.8742   1.0000                                         
     2  1  0.50        -1.3606   0.0000                                         
     3  2  1.50        -1.3606   0.0000                                         
   Description                                                                  
     l       E           TYP  RCUT    TYP  RCUT                                 
     0     -2.8742052     23  2.050                                             
     0     27.2116520     23  2.050                                             
     1     -1.3605826     23  2.050                                             
     2     -1.3605826     23  2.050                                             
  local pseudopotential read in
  partial core-charges read in
  partial kinetic energy density read in
  atomic valenz-charges read in
  non local Contribution for L=           0  read in
    real space projection operators read in
  non local Contribution for L=           0  read in
    real space projection operators read in
  non local Contribution for L=           1  read in
    real space projection operators read in
    PAW grid and wavefunctions read in
 
   number of l-projection  operators is LMAX  =           3
   number of lm-projection operators is LMMAX =           5
 
  PAW_PBE Li 17Jan2003                  :
 energy of atom  1       EATOM=   -5.3001
 kinetic energy error for atom=    0.0000 (will be added to EATOM!!)
 
 
 POSCAR: Li4                                     
  positions in direct lattice
  No initial velocities read in
 exchange correlation table for  LEXCH =        8
   RHO(1)=    0.500       N(1)  =     2000
   RHO(2)=  100.500       N(2)  =     4000
 


--------------------------------------------------------------------------------------------------------


 ion  position               nearest neighbor table
   1  0.000  0.000  0.000-   4 3.05   4 3.05   2 3.05   3 3.05   2 3.05   2 3.05   2 3.05   3 3.05
                             3 3.05   3 3.05   4 3.05   4 3.05
   2  0.000  0.500  0.500-   3 3.05   3 3.05   1 3.05   4 3.05   1 3.05   1 3.05   1 3.05   4 3.05
                             4 3.05   4 3.05   3 3.05   3 3.05
   3  0.500  0.000  0.500-   2 3.05   2 3.05   1 3.05   4 3.05   1 3.05   4 3.05   4 3.05   1 3.05
                             4 3.05   1 3.05   2 3.05   2 3.05
   4  0.500  0.500  0.000-   1 3.05   1 3.05   2 3.05   3 3.05   2 3.05   3 3.05   3 3.05   3 3.05
                             2 3.05   2 3.05   1 3.05   1 3.05
 
  LATTYP: Found a simple cubic cell.
 ALAT       =     4.3198900000
  
  Lattice vectors:
  
 A1 = (   4.3198900000,   0.0000000000,   0.0000000000)
 A2 = (   0.0000000000,   4.3198900000,   0.0000000000)
 A3 = (   0.0000000000,   0.0000000000,   4.3198900000)


Analysis of symmetry for initial positions (statically):
=====================================================================
 Subroutine PRICEL returns following result:
 
  LATTYP: Found a face centered cubic cell.
 ALAT       =     4.3198900000
  
  Lattice vectors:
  
 A1 = (   2.1599450000,   2.1599450000,   0.0000000000)
 A2 = (   2.1599450000,   0.0000000000,  -2.1599450000)
 A3 = (   0.0000000000,   2.1599450000,  -2.1599450000)
 
   4 primitive cells build up your supercell.
 

 Routine SETGRP: Setting up the symmetry group for a 
 simple cubic supercell.


 Subroutine GETGRP returns: Found 48 space group operations
 (whereof 48 operations were pure point group operations)
 out of a pool of 48 trial point group operations.


The static configuration has the point symmetry O_h .


Analysis of symmetry for dynamics (positions and initial velocities):
=====================================================================
 Subroutine PRICEL returns following result:
 
  LATTYP: Found a face centered cubic cell.
 ALAT       =     4.3198900000
  
  Lattice vectors:
  
 A1 = (   2.1599450000,   2.1599450000,   0.0000000000)
 A2 = (   2.1599450000,   0.0000000000,  -2.1599450000)
 A3 = (   0.0000000000,   2.1599450000,  -2.1599450000)
 
   4 primitive cells build up your supercell.
 

 Routine SETGRP: Setting up the symmetry group for a 
 simple cubic supercell.


 Subroutine GETGRP returns: Found 48 space group operations
 (whereof 48 operations were pure point group operations)
 out of a pool of 48 trial point group operations.


The dynamic configuration has the point symmetry O_h .


Analysis of magnetic symmetry:
=====================================================================

 Subroutine MAGSYM returns: Found 48 space group operations
 (whereof 48 operations were pure point group operations)
 out of a pool of 48 trial space group operations
 (whereof 48 operations were pure point group operations)
 and found also     4 'primitive' translations


The magnetic configuration has the point symmetry O_h .


 irot  :   1
 --------------------------------------------------------------------
 isymop:   1   0   0
           0   1   0
           0   0   1

 gtrans:     0.0000000     0.0000000     0.0000000

 ptrans:     0.0000000     0.0000000     0.0000000
 rotmap:
 (   1->   1)  (   2->   2)  (   3->   3)  (   4->   4) 

 ptrans:     0.5000000     0.5000000     0.0000000
 rotmap:
 (   1->   4)  (   2->   3)  (   3->   2)  (   4->   1) 

 ptrans:     0.5000000     0.0000000     0.5000000
 rotmap:
 (   1->   3)  (   2->   4)  (   3->   1)  (   4->   2) 

 ptrans:     0.0000000     0.5000000     0.5000000
 rotmap:
 (   1->   2)  (   2->   1)  (   3->   4)  (   4->   3) 


 irot  :   2
 --------------------------------------------------------------------
 isymop:  -1   0   0
           0  -1   0
           0   0  -1

 gtrans:     0.0000000     0.0000000     0.0000000

 ptrans:     0.0000000     0.0000000     0.0000000
 rotmap:
 (   1->   1)  (   2->   2)  (   3->   3)  (   4->   4) 

 ptrans:     0.5000000     0.5000000     0.0000000
 rotmap:
 (   1->   4)  (   2->   3)  (   3->   2)  (   4->   1) 

 ptrans:     0.5000000     0.0000000     0.5000000
 rotmap:
 (   1->   3)  (   2->   4)  (   3->   1)  (   4->   2) 

 ptrans:     0.0000000     0.5000000     0.5000000
 rotmap:
 (   1->   2)  (   2->   1)  (   3->   4)  (   4->   3) 


 irot  :   3
 --------------------------------------------------------------------
 isymop:   0   0   1
           1   0   0
           0   1   0

 gtrans:     0.0000000     0.0000000     0.0000000

 ptrans:     0.0000000     0.0000000     0.0000000
 rotmap:
 (   1->   1)  (   2->   3)  (   3->   4)  (   4->   2) 

 ptrans:     0.5000000     0.5000000     0.0000000
 rotmap:
 (   1->   4)  (   2->   2)  (   3->   1)  (   4->   3) 

 ptrans:     0.5000000     0.0000000     0.5000000
 rotmap:
 (   1->   3)  (   2->   1)  (   3->   2)  (   4->   4) 

 ptrans:     0.0000000     0.5000000     0.5000000
 rotmap:
 (   1->   2)  (   2->   4)  (   3->   3)  (   4->   1) 


 irot  :   4
 --------------------------------------------------------------------
 isymop:   0   0  -1
          -1   0   0
           0  -1   0

 gtrans:     0.0000000     0.0000000     0.0000000

 ptrans:     0.0000000     0.0000000     0.0000000
 rotmap:
 (   1->   1)  (   2->   3)  (   3->   4)  (   4->   2) 

 ptrans:     0.5000000     0.5000000     0.0000000
 rotmap:
 (   1->   4)  (   2->   2)  (   3->   1)  (   4->   3) 

 ptrans:     0.5000000     0.0000000     0.5000000
 rotmap:
 (   1->   3)  (   2->   1)  (   3->   2)  (   4->   4) 

 ptrans:     0.0000000     0.5000000     0.5000000
 rotmap:
 (   1->   2)  (   2->   4)  (   3->   3)  (   4->   1) 


 irot  :   5
 --------------------------------------------------------------------
 isymop:   0   1   0
           0   0   1
           1   0   0

 gtrans:     0.0000000     0.0000000     0.0000000

 ptrans:     0.0000000     0.0000000     0.0000000
 rotmap:
 (   1->   1)  (   2->   4)  (   3->   2)  (   4->   3) 

 ptrans:     0.5000000     0.5000000     0.0000000
 rotmap:
 (   1->   4)  (   2->   1)  (   3->   3)  (   4->   2) 

 ptrans:     0.5000000     0.0000000     0.5000000
 rotmap:
 (   1->   3)  (   2->   2)  (   3->   4)  (   4->   1) 

 ptrans:     0.0000000     0.5000000     0.5000000
 rotmap:
 (   1->   2)  (   2->   3)  (   3->   1)  (   4->   4) 


 irot  :   6
 --------------------------------------------------------------------
 isymop:   0  -1   0
           0   0  -1
          -1   0   0

 gtrans:     0.0000000     0.0000000     0.0000000

 ptrans:     0.0000000     0.0000000     0.0000000
 rotmap:
 (   1->   1)  (   2->   4)  (   3->   2)  (   4->   3) 

 ptrans:     0.5000000     0.5000000     0.0000000
 rotmap:
 (   1->   4)  (   2->   1)  (   3->   3)  (   4->   2) 

 ptrans:     0.5000000     0.0000000     0.5000000
 rotmap:
 (   1->   3)  (   2->   2)  (   3->   4)  (   4->   1) 

 ptrans:     0.0000000     0.5000000     0.5000000
 rotmap:
 (   1->   2)  (   2->   3)  (   3->   1)  (   4->   4) 


 irot  :   7
 --------------------------------------------------------------------
 isymop:   0  -1   0
           1   0   0
           0   0   1

 gtrans:     0.0000000     0.0000000     0.0000000

 ptrans:     0.0000000     0.0000000     0.0000000
 rotmap:
 (   1->   1)  (   2->   3)  (   3->   2)  (   4->   4) 

 ptrans:     0.5000000     0.5000000     0.0000000
 rotmap:
 (   1->   4)  (   2->   2)  (   3->   3)  (   4->   1) 

 ptrans:     0.5000000     0.0000000     0.5000000
 rotmap:
 (   1->   3)  (   2->   1)  (   3->   4)  (   4->   2) 

 ptrans:     0.0000000     0.5000000     0.5000000
 rotmap:
 (   1->   2)  (   2->   4)  (   3->   1)  (   4->   3) 


 irot  :   8
 --------------------------------------------------------------------
 isymop:   0   1   0
          -1   0   0
           0   0  -1

 gtrans:     0.0000000     0.0000000     0.0000000

 ptrans:     0.0000000     0.0000000     0.0000000
 rotmap:
 (   1->   1)  (   2->   3)  (   3->   2)  (   4->   4) 

 ptrans:     0.5000000     0.5000000     0.0000000
 rotmap:
 (   1->   4)  (   2->   2)  (   3->   3)  (   4->   1) 

 ptrans:     0.5000000     0.0000000     0.5000000
 rotmap:
 (   1->   3)  (   2->   1)  (   3->   4)  (   4->   2) 

 ptrans:     0.0000000     0.5000000     0.5000000
 rotmap:
 (   1->   2)  (   2->   4)  (   3->   1)  (   4->   3) 


 irot  :   9
 --------------------------------------------------------------------
 isymop:  -1   0   0
           0   0   1
           0   1   0

 gtrans:     0.0000000     0.0000000     0.0000000

 ptrans:     0.0000000     0.0000000     0.0000000
 rotmap:
 (   1->   1)  (   2->   2)  (   3->   4)  (   4->   3) 

 ptrans:     0.5000000     0.5000000     0.0000000
 rotmap:
 (   1->   4)  (   2->   3)  (   3->   1)  (   4->   2) 

 ptrans:     0.5000000     0.0000000     0.5000000
 rotmap:
 (   1->   3)  (   2->   4)  (   3->   2)  (   4->   1) 

 ptrans:     0.0000000     0.5000000     0.5000000
 rotmap:
 (   1->   2)  (   2->   1)  (   3->   3)  (   4->   4) 


 irot  :  10
 --------------------------------------------------------------------
 isymop:   1   0   0
           0   0  -1
           0  -1   0

 gtrans:     0.0000000     0.0000000     0.0000000

 ptrans:     0.0000000     0.0000000     0.0000000
 rotmap:
 (   1->   1)  (   2->   2)  (   3->   4)  (   4->   3) 

 ptrans:     0.5000000     0.5000000     0.0000000
 rotmap:
 (   1->   4)  (   2->   3)  (   3->   1)  (   4->   2) 

 ptrans:     0.5000000     0.0000000     0.5000000
 rotmap:
 (   1->   3)  (   2->   4)  (   3->   2)  (   4->   1) 

 ptrans:     0.0000000     0.5000000     0.5000000
 rotmap:
 (   1->   2)  (   2->   1)  (   3->   3)  (   4->   4) 


 irot  :  11
 --------------------------------------------------------------------
 isymop:   0   0  -1
           0   1   0
           1   0   0

 gtrans:     0.0000000     0.0000000     0.0000000

 ptrans:     0.0000000     0.0000000     0.0000000
 rotmap:
 (   1->   1)  (   2->   4)  (   3->   3)  (   4->   2) 

 ptrans:     0.5000000     0.5000000     0.0000000
 rotmap:
 (   1->   4)  (   2->   1)  (   3->   2)  (   4->   3) 

 ptrans:     0.5000000     0.0000000     0.5000000
 rotmap:
 (   1->   3)  (   2->   2)  (   3->   1)  (   4->   4) 

 ptrans:     0.0000000     0.5000000     0.5000000
 rotmap:
 (   1->   2)  (   2->   3)  (   3->   4)  (   4->   1) 


 irot  :  12
 --------------------------------------------------------------------
 isymop:   0   0   1
           0  -1   0
          -1   0   0

 gtrans:     0.0000000     0.0000000     0.0000000

 ptrans:     0.0000000     0.0000000     0.0000000
 rotmap:
 (   1->   1)  (   2->   4)  (   3->   3)  (   4->   2) 

 ptrans:     0.5000000     0.5000000     0.0000000
 rotmap:
 (   1->   4)  (   2->   1)  (   3->   2)  (   4->   3) 

 ptrans:     0.5000000     0.0000000     0.5000000
 rotmap:
 (   1->   3)  (   2->   2)  (   3->   1)  (   4->   4) 

 ptrans:     0.0000000     0.5000000     0.5000000
 rotmap:
 (   1->   2)  (   2->   3)  (   3->   4)  (   4->   1) 


 irot  :  13
 --------------------------------------------------------------------
 isymop:  -1   0   0
           0  -1   0
           0   0   1

 gtrans:     0.0000000     0.0000000     0.0000000

 ptrans:     0.0000000     0.0000000     0.0000000
 rotmap:
 (   1->   1)  (   2->   2)  (   3->   3)  (   4->   4) 

 ptrans:     0.5000000     0.5000000     0.0000000
 rotmap:
 (   1->   4)  (   2->   3)  (   3->   2)  (   4->   1) 

 ptrans:     0.5000000     0.0000000     0.5000000
 rotmap:
 (   1->   3)  (   2->   4)  (   3->   1)  (   4->   2) 

 ptrans:     0.0000000     0.5000000     0.5000000
 rotmap:
 (   1->   2)  (   2->   1)  (   3->   4)  (   4->   3) 


 irot  :  14
 --------------------------------------------------------------------
 isymop:   1   0   0
           0   1   0
           0   0  -1

 gtrans:     0.0000000     0.0000000     0.0000000

 ptrans:     0.0000000     0.0000000     0.0000000
 rotmap:
 (   1->   1)  (   2->   2)  (   3->   3)  (   4->   4) 

 ptrans:     0.5000000     0.5000000     0.0000000
 rotmap:
 (   1->   4)  (   2->   3)  (   3->   2)  (   4->   1) 

 ptrans:     0.5000000     0.0000000     0.5000000
 rotmap:
 (   1->   3)  (   2->   4)  (   3->   1)  (   4->   2) 

 ptrans:     0.0000000     0.5000000     0.5000000
 rotmap:
 (   1->   2)  (   2->   1)  (   3->   4)  (   4->   3) 


 irot  :  15
 --------------------------------------------------------------------
 isymop:   0   0  -1
          -1   0   0
           0   1   0

 gtrans:     0.0000000     0.0000000     0.0000000

 ptrans:     0.0000000     0.0000000     0.0000000
 rotmap:
 (   1->   1)  (   2->   3)  (   3->   4)  (   4->   2) 

 ptrans:     0.5000000     0.5000000     0.0000000
 rotmap:
 (   1->   4)  (   2->   2)  (   3->   1)  (   4->   3) 

 ptrans:     0.5000000     0.0000000     0.5000000
 rotmap:
 (   1->   3)  (   2->   1)  (   3->   2)  (   4->   4) 

 ptrans:     0.0000000     0.5000000     0.5000000
 rotmap:
 (   1->   2)  (   2->   4)  (   3->   3)  (   4->   1) 


 irot  :  16
 --------------------------------------------------------------------
 isymop:   0   0   1
           1   0   0
           0  -1   0

 gtrans:     0.0000000     0.0000000     0.0000000

 ptrans:     0.0000000     0.0000000     0.0000000
 rotmap:
 (   1->   1)  (   2->   3)  (   3->   4)  (   4->   2) 

 ptrans:     0.5000000     0.5000000     0.0000000
 rotmap:
 (   1->   4)  (   2->   2)  (   3->   1)  (   4->   3) 

 ptrans:     0.5000000     0.0000000     0.5000000
 rotmap:
 (   1->   3)  (   2->   1)  (   3->   2)  (   4->   4) 

 ptrans:     0.0000000     0.5000000     0.5000000
 rotmap:
 (   1->   2)  (   2->   4)  (   3->   3)  (   4->   1) 


 irot  :  17
 --------------------------------------------------------------------
 isymop:   0  -1   0
           0   0  -1
           1   0   0

 gtrans:     0.0000000     0.0000000     0.0000000

 ptrans:     0.0000000     0.0000000     0.0000000
 rotmap:
 (   1->   1)  (   2->   4)  (   3->   2)  (   4->   3) 

 ptrans:     0.5000000     0.5000000     0.0000000
 rotmap:
 (   1->   4)  (   2->   1)  (   3->   3)  (   4->   2) 

 ptrans:     0.5000000     0.0000000     0.5000000
 rotmap:
 (   1->   3)  (   2->   2)  (   3->   4)  (   4->   1) 

 ptrans:     0.0000000     0.5000000     0.5000000
 rotmap:
 (   1->   2)  (   2->   3)  (   3->   1)  (   4->   4) 


 irot  :  18
 --------------------------------------------------------------------
 isymop:   0   1   0
           0   0   1
          -1   0   0

 gtrans:     0.0000000     0.0000000     0.0000000

 ptrans:     0.0000000     0.0000000     0.0000000
 rotmap:
 (   1->   1)  (   2->   4)  (   3->   2)  (   4->   3) 

 ptrans:     0.5000000     0.5000000     0.0000000
 rotmap:
 (   1->   4)  (   2->   1)  (   3->   3)  (   4->   2) 

 ptrans:     0.5000000     0.0000000     0.5000000
 rotmap:
 (   1->   3)  (   2->   2)  (   3->   4)  (   4->   1) 

 ptrans:     0.0000000     0.5000000     0.5000000
 rotmap:
 (   1->   2)  (   2->   3)  (   3->   1)  (   4->   4) 


 irot  :  19
 --------------------------------------------------------------------
 isymop:   0   1   0
          -1   0   0
           0   0   1

 gtrans:     0.0000000     0.0000000     0.0000000

 ptrans:     0.0000000     0.0000000     0.0000000
 rotmap:
 (   1->   1)  (   2->   3)  (   3->   2)  (   4->   4) 

 ptrans:     0.5000000     0.5000000     0.0000000
 rotmap:
 (   1->   4)  (   2->   2)  (   3->   3)  (   4->   1) 

 ptrans:     0.5000000     0.0000000     0.5000000
 rotmap:
 (   1->   3)  (   2->   1)  (   3->   4)  (   4->   2) 

 ptrans:     0.0000000     0.5000000     0.5000000
 rotmap:
 (   1->   2)  (   2->   4)  (   3->   1)  (   4->   3) 


 irot  :  20
 --------------------------------------------------------------------
 isymop:   0  -1   0
           1   0   0
           0   0  -1

 gtrans:     0.0000000     0.0000000     0.0000000

 ptrans:     0.0000000     0.0000000     0.0000000
 rotmap:
 (   1->   1)  (   2->   3)  (   3->   2)  (   4->   4) 

 ptrans:     0.5000000     0.5000000     0.0000000
 rotmap:
 (   1->   4)  (   2->   2)  (   3->   3)  (   4->   1) 

 ptrans:     0.5000000     0.0000000     0.5000000
 rotmap:
 (   1->   3)  (   2->   1)  (   3->   4)  (   4->   2) 

 ptrans:     0.0000000     0.5000000     0.5000000
 rotmap:
 (   1->   2)  (   2->   4)  (   3->   1)  (   4->   3) 


 irot  :  21
 --------------------------------------------------------------------
 isymop:   1   0   0
           0   0  -1
           0   1   0

 gtrans:     0.0000000     0.0000000     0.0000000

 ptrans:     0.0000000     0.0000000     0.0000000
 rotmap:
 (   1->   1)  (   2->   2)  (   3->   4)  (   4->   3) 

 ptrans:     0.5000000     0.5000000     0.0000000
 rotmap:
 (   1->   4)  (   2->   3)  (   3->   1)  (   4->   2) 

 ptrans:     0.5000000     0.0000000     0.5000000
 rotmap:
 (   1->   3)  (   2->   4)  (   3->   2)  (   4->   1) 

 ptrans:     0.0000000     0.5000000     0.5000000
 rotmap:
 (   1->   2)  (   2->   1)  (   3->   3)  (   4->   4) 


 irot  :  22
 --------------------------------------------------------------------
 isymop:  -1   0   0
           0   0   1
           0  -1   0

 gtrans:     0.0000000     0.0000000     0.0000000

 ptrans:     0.0000000     0.0000000     0.0000000
 rotmap:
 (   1->   1)  (   2->   2)  (   3->   4)  (   4->   3) 

 ptrans:     0.5000000     0.5000000     0.0000000
 rotmap:
 (   1->   4)  (   2->   3)  (   3->   1)  (   4->   2) 

 ptrans:     0.5000000     0.0000000     0.5000000
 rotmap:
 (   1->   3)  (   2->   4)  (   3->   2)  (   4->   1) 

 ptrans:     0.0000000     0.5000000     0.5000000
 rotmap:
 (   1->   2)  (   2->   1)  (   3->   3)  (   4->   4) 


 irot  :  23
 --------------------------------------------------------------------
 isymop:   0   0   1
           0  -1   0
           1   0   0

 gtrans:     0.0000000     0.0000000     0.0000000

 ptrans:     0.0000000     0.0000000     0.0000000
 rotmap:
 (   1->   1)  (   2->   4)  (   3->   3)  (   4->   2) 

 ptrans:     0.5000000     0.5000000     0.0000000
 rotmap:
 (   1->   4)  (   2->   1)  (   3->   2)  (   4->   3) 

 ptrans:     0.5000000     0.0000000     0.5000000
 rotmap:
 (   1->   3)  (   2->   2)  (   3->   1)  (   4->   4) 

 ptrans:     0.0000000     0.5000000     0.5000000
 rotmap:
 (   1->   2)  (   2->   3)  (   3->   4)  (   4->   1) 


 irot  :  24
 --------------------------------------------------------------------
 isymop:   0   0  -1
           0   1   0
          -1   0   0

 gtrans:     0.0000000     0.0000000     0.0000000

 ptrans:     0.0000000     0.0000000     0.0000000
 rotmap:
 (   1->   1)  (   2->   4)  (   3->   3)  (   4->   2) 

 ptrans:     0.5000000     0.5000000     0.0000000
 rotmap:
 (   1->   4)  (   2->   1)  (   3->   2)  (   4->   3) 

 ptrans:     0.5000000     0.0000000     0.5000000
 rotmap:
 (   1->   3)  (   2->   2)  (   3->   1)  (   4->   4) 

 ptrans:     0.0000000     0.5000000     0.5000000
 rotmap:
 (   1->   2)  (   2->   3)  (   3->   4)  (   4->   1) 


 irot  :  25
 --------------------------------------------------------------------
 isymop:   0   0   1
          -1   0   0
           0  -1   0

 gtrans:     0.0000000     0.0000000     0.0000000

 ptrans:     0.0000000     0.0000000     0.0000000
 rotmap:
 (   1->   1)  (   2->   3)  (   3->   4)  (   4->   2) 

 ptrans:     0.5000000     0.5000000     0.0000000
 rotmap:
 (   1->   4)  (   2->   2)  (   3->   1)  (   4->   3) 

 ptrans:     0.5000000     0.0000000     0.5000000
 rotmap:
 (   1->   3)  (   2->   1)  (   3->   2)  (   4->   4) 

 ptrans:     0.0000000     0.5000000     0.5000000
 rotmap:
 (   1->   2)  (   2->   4)  (   3->   3)  (   4->   1) 


 irot  :  26
 --------------------------------------------------------------------
 isymop:   0   0  -1
           1   0   0
           0   1   0

 gtrans:     0.0000000     0.0000000     0.0000000

 ptrans:     0.0000000     0.0000000     0.0000000
 rotmap:
 (   1->   1)  (   2->   3)  (   3->   4)  (   4->   2) 

 ptrans:     0.5000000     0.5000000     0.0000000
 rotmap:
 (   1->   4)  (   2->   2)  (   3->   1)  (   4->   3) 

 ptrans:     0.5000000     0.0000000     0.5000000
 rotmap:
 (   1->   3)  (   2->   1)  (   3->   2)  (   4->   4) 

 ptrans:     0.0000000     0.5000000     0.5000000
 rotmap:
 (   1->   2)  (   2->   4)  (   3->   3)  (   4->   1) 


 irot  :  27
 --------------------------------------------------------------------
 isymop:   0   1   0
           0   0  -1
          -1   0   0

 gtrans:     0.0000000     0.0000000     0.0000000

 ptrans:     0.0000000     0.0000000     0.0000000
 rotmap:
 (   1->   1)  (   2->   4)  (   3->   2)  (   4->   3) 

 ptrans:     0.5000000     0.5000000     0.0000000
 rotmap:
 (   1->   4)  (   2->   1)  (   3->   3)  (   4->   2) 

 ptrans:     0.5000000     0.0000000     0.5000000
 rotmap:
 (   1->   3)  (   2->   2)  (   3->   4)  (   4->   1) 

 ptrans:     0.0000000     0.5000000     0.5000000
 rotmap:
 (   1->   2)  (   2->   3)  (   3->   1)  (   4->   4) 


 irot  :  28
 --------------------------------------------------------------------
 isymop:   0  -1   0
           0   0   1
           1   0   0

 gtrans:     0.0000000     0.0000000     0.0000000

 ptrans:     0.0000000     0.0000000     0.0000000
 rotmap:
 (   1->   1)  (   2->   4)  (   3->   2)  (   4->   3) 

 ptrans:     0.5000000     0.5000000     0.0000000
 rotmap:
 (   1->   4)  (   2->   1)  (   3->   3)  (   4->   2) 

 ptrans:     0.5000000     0.0000000     0.5000000
 rotmap:
 (   1->   3)  (   2->   2)  (   3->   4)  (   4->   1) 

 ptrans:     0.0000000     0.5000000     0.5000000
 rotmap:
 (   1->   2)  (   2->   3)  (   3->   1)  (   4->   4) 


 irot  :  29
 --------------------------------------------------------------------
 isymop:   1   0   0
           0  -1   0
           0   0  -1

 gtrans:     0.0000000     0.0000000     0.0000000

 ptrans:     0.0000000     0.0000000     0.0000000
 rotmap:
 (   1->   1)  (   2->   2)  (   3->   3)  (   4->   4) 

 ptrans:     0.5000000     0.5000000     0.0000000
 rotmap:
 (   1->   4)  (   2->   3)  (   3->   2)  (   4->   1) 

 ptrans:     0.5000000     0.0000000     0.5000000
 rotmap:
 (   1->   3)  (   2->   4)  (   3->   1)  (   4->   2) 

 ptrans:     0.0000000     0.5000000     0.5000000
 rotmap:
 (   1->   2)  (   2->   1)  (   3->   4)  (   4->   3) 


 irot  :  30
 --------------------------------------------------------------------
 isymop:  -1   0   0
           0   1   0
           0   0   1

 gtrans:     0.0000000     0.0000000     0.0000000

 ptrans:     0.0000000     0.0000000     0.0000000
 rotmap:
 (   1->   1)  (   2->   2)  (   3->   3)  (   4->   4) 

 ptrans:     0.5000000     0.5000000     0.0000000
 rotmap:
 (   1->   4)  (   2->   3)  (   3->   2)  (   4->   1) 

 ptrans:     0.5000000     0.0000000     0.5000000
 rotmap:
 (   1->   3)  (   2->   4)  (   3->   1)  (   4->   2) 

 ptrans:     0.0000000     0.5000000     0.5000000
 rotmap:
 (   1->   2)  (   2->   1)  (   3->   4)  (   4->   3) 


 irot  :  31
 --------------------------------------------------------------------
 isymop:   0   0   1
           0   1   0
          -1   0   0

 gtrans:     0.0000000     0.0000000     0.0000000

 ptrans:     0.0000000     0.0000000     0.0000000
 rotmap:
 (   1->   1)  (   2->   4)  (   3->   3)  (   4->   2) 

 ptrans:     0.5000000     0.5000000     0.0000000
 rotmap:
 (   1->   4)  (   2->   1)  (   3->   2)  (   4->   3) 

 ptrans:     0.5000000     0.0000000     0.5000000
 rotmap:
 (   1->   3)  (   2->   2)  (   3->   1)  (   4->   4) 

 ptrans:     0.0000000     0.5000000     0.5000000
 rotmap:
 (   1->   2)  (   2->   3)  (   3->   4)  (   4->   1) 


 irot  :  32
 --------------------------------------------------------------------
 isymop:   0   0  -1
           0  -1   0
           1   0   0

 gtrans:     0.0000000     0.0000000     0.0000000

 ptrans:     0.0000000     0.0000000     0.0000000
 rotmap:
 (   1->   1)  (   2->   4)  (   3->   3)  (   4->   2) 

 ptrans:     0.5000000     0.5000000     0.0000000
 rotmap:
 (   1->   4)  (   2->   1)  (   3->   2)  (   4->   3) 

 ptrans:     0.5000000     0.0000000     0.5000000
 rotmap:
 (   1->   3)  (   2->   2)  (   3->   1)  (   4->   4) 

 ptrans:     0.0000000     0.5000000     0.5000000
 rotmap:
 (   1->   2)  (   2->   3)  (   3->   4)  (   4->   1) 


 irot  :  33
 --------------------------------------------------------------------
 isymop:   0   1   0
           1   0   0
           0   0  -1

 gtrans:     0.0000000     0.0000000     0.0000000

 ptrans:     0.0000000     0.0000000     0.0000000
 rotmap:
 (   1->   1)  (   2->   3)  (   3->   2)  (   4->   4) 

 ptrans:     0.5000000     0.5000000     0.0000000
 rotmap:
 (   1->   4)  (   2->   2)  (   3->   3)  (   4->   1) 

 ptrans:     0.5000000     0.0000000     0.5000000
 rotmap:
 (   1->   3)  (   2->   1)  (   3->   4)  (   4->   2) 

 ptrans:     0.0000000     0.5000000     0.5000000
 rotmap:
 (   1->   2)  (   2->   4)  (   3->   1)  (   4->   3) 


 irot  :  34
 --------------------------------------------------------------------
 isymop:   0  -1   0
          -1   0   0
           0   0   1

 gtrans:     0.0000000     0.0000000     0.0000000

 ptrans:     0.0000000     0.0000000     0.0000000
 rotmap:
 (   1->   1)  (   2->   3)  (   3->   2)  (   4->   4) 

 ptrans:     0.5000000     0.5000000     0.0000000
 rotmap:
 (   1->   4)  (   2->   2)  (   3->   3)  (   4->   1) 

 ptrans:     0.5000000     0.0000000     0.5000000
 rotmap:
 (   1->   3)  (   2->   1)  (   3->   4)  (   4->   2) 

 ptrans:     0.0000000     0.5000000     0.5000000
 rotmap:
 (   1->   2)  (   2->   4)  (   3->   1)  (   4->   3) 


 irot  :  35
 --------------------------------------------------------------------
 isymop:   1   0   0
           0   0   1
           0  -1   0

 gtrans:     0.0000000     0.0000000     0.0000000

 ptrans:     0.0000000     0.0000000     0.0000000
 rotmap:
 (   1->   1)  (   2->   2)  (   3->   4)  (   4->   3) 

 ptrans:     0.5000000     0.5000000     0.0000000
 rotmap:
 (   1->   4)  (   2->   3)  (   3->   1)  (   4->   2) 

 ptrans:     0.5000000     0.0000000     0.5000000
 rotmap:
 (   1->   3)  (   2->   4)  (   3->   2)  (   4->   1) 

 ptrans:     0.0000000     0.5000000     0.5000000
 rotmap:
 (   1->   2)  (   2->   1)  (   3->   3)  (   4->   4) 


 irot  :  36
 --------------------------------------------------------------------
 isymop:  -1   0   0
           0   0  -1
           0   1   0

 gtrans:     0.0000000     0.0000000     0.0000000

 ptrans:     0.0000000     0.0000000     0.0000000
 rotmap:
 (   1->   1)  (   2->   2)  (   3->   4)  (   4->   3) 

 ptrans:     0.5000000     0.5000000     0.0000000
 rotmap:
 (   1->   4)  (   2->   3)  (   3->   1)  (   4->   2) 

 ptrans:     0.5000000     0.0000000     0.5000000
 rotmap:
 (   1->   3)  (   2->   4)  (   3->   2)  (   4->   1) 

 ptrans:     0.0000000     0.5000000     0.5000000
 rotmap:
 (   1->   2)  (   2->   1)  (   3->   3)  (   4->   4) 


 irot  :  37
 --------------------------------------------------------------------
 isymop:   0  -1   0
           0   0   1
          -1   0   0

 gtrans:     0.0000000     0.0000000     0.0000000

 ptrans:     0.0000000     0.0000000     0.0000000
 rotmap:
 (   1->   1)  (   2->   4)  (   3->   2)  (   4->   3) 

 ptrans:     0.5000000     0.5000000     0.0000000
 rotmap:
 (   1->   4)  (   2->   1)  (   3->   3)  (   4->   2) 

 ptrans:     0.5000000     0.0000000     0.5000000
 rotmap:
 (   1->   3)  (   2->   2)  (   3->   4)  (   4->   1) 

 ptrans:     0.0000000     0.5000000     0.5000000
 rotmap:
 (   1->   2)  (   2->   3)  (   3->   1)  (   4->   4) 


 irot  :  38
 --------------------------------------------------------------------
 isymop:   0   1   0
           0   0  -1
           1   0   0

 gtrans:     0.0000000     0.0000000     0.0000000

 ptrans:     0.0000000     0.0000000     0.0000000
 rotmap:
 (   1->   1)  (   2->   4)  (   3->   2)  (   4->   3) 

 ptrans:     0.5000000     0.5000000     0.0000000
 rotmap:
 (   1->   4)  (   2->   1)  (   3->   3)  (   4->   2) 

 ptrans:     0.5000000     0.0000000     0.5000000
 rotmap:
 (   1->   3)  (   2->   2)  (   3->   4)  (   4->   1) 

 ptrans:     0.0000000     0.5000000     0.5000000
 rotmap:
 (   1->   2)  (   2->   3)  (   3->   1)  (   4->   4) 


 irot  :  39
 --------------------------------------------------------------------
 isymop:  -1   0   0
           0   1   0
           0   0  -1

 gtrans:     0.0000000     0.0000000     0.0000000

 ptrans:     0.0000000     0.0000000     0.0000000
 rotmap:
 (   1->   1)  (   2->   2)  (   3->   3)  (   4->   4) 

 ptrans:     0.5000000     0.5000000     0.0000000
 rotmap:
 (   1->   4)  (   2->   3)  (   3->   2)  (   4->   1) 

 ptrans:     0.5000000     0.0000000     0.5000000
 rotmap:
 (   1->   3)  (   2->   4)  (   3->   1)  (   4->   2) 

 ptrans:     0.0000000     0.5000000     0.5000000
 rotmap:
 (   1->   2)  (   2->   1)  (   3->   4)  (   4->   3) 


 irot  :  40
 --------------------------------------------------------------------
 isymop:   1   0   0
           0  -1   0
           0   0   1

 gtrans:     0.0000000     0.0000000     0.0000000

 ptrans:     0.0000000     0.0000000     0.0000000
 rotmap:
 (   1->   1)  (   2->   2)  (   3->   3)  (   4->   4) 

 ptrans:     0.5000000     0.5000000     0.0000000
 rotmap:
 (   1->   4)  (   2->   3)  (   3->   2)  (   4->   1) 

 ptrans:     0.5000000     0.0000000     0.5000000
 rotmap:
 (   1->   3)  (   2->   4)  (   3->   1)  (   4->   2) 

 ptrans:     0.0000000     0.5000000     0.5000000
 rotmap:
 (   1->   2)  (   2->   1)  (   3->   4)  (   4->   3) 


 irot  :  41
 --------------------------------------------------------------------
 isymop:   0   0  -1
           1   0   0
           0  -1   0

 gtrans:     0.0000000     0.0000000     0.0000000

 ptrans:     0.0000000     0.0000000     0.0000000
 rotmap:
 (   1->   1)  (   2->   3)  (   3->   4)  (   4->   2) 

 ptrans:     0.5000000     0.5000000     0.0000000
 rotmap:
 (   1->   4)  (   2->   2)  (   3->   1)  (   4->   3) 

 ptrans:     0.5000000     0.0000000     0.5000000
 rotmap:
 (   1->   3)  (   2->   1)  (   3->   2)  (   4->   4) 

 ptrans:     0.0000000     0.5000000     0.5000000
 rotmap:
 (   1->   2)  (   2->   4)  (   3->   3)  (   4->   1) 


 irot  :  42
 --------------------------------------------------------------------
 isymop:   0   0   1
          -1   0   0
           0   1   0

 gtrans:     0.0000000     0.0000000     0.0000000

 ptrans:     0.0000000     0.0000000     0.0000000
 rotmap:
 (   1->   1)  (   2->   3)  (   3->   4)  (   4->   2) 

 ptrans:     0.5000000     0.5000000     0.0000000
 rotmap:
 (   1->   4)  (   2->   2)  (   3->   1)  (   4->   3) 

 ptrans:     0.5000000     0.0000000     0.5000000
 rotmap:
 (   1->   3)  (   2->   1)  (   3->   2)  (   4->   4) 

 ptrans:     0.0000000     0.5000000     0.5000000
 rotmap:
 (   1->   2)  (   2->   4)  (   3->   3)  (   4->   1) 


 irot  :  43
 --------------------------------------------------------------------
 isymop:  -1   0   0
           0   0  -1
           0  -1   0

 gtrans:     0.0000000     0.0000000     0.0000000

 ptrans:     0.0000000     0.0000000     0.0000000
 rotmap:
 (   1->   1)  (   2->   2)  (   3->   4)  (   4->   3) 

 ptrans:     0.5000000     0.5000000     0.0000000
 rotmap:
 (   1->   4)  (   2->   3)  (   3->   1)  (   4->   2) 

 ptrans:     0.5000000     0.0000000     0.5000000
 rotmap:
 (   1->   3)  (   2->   4)  (   3->   2)  (   4->   1) 

 ptrans:     0.0000000     0.5000000     0.5000000
 rotmap:
 (   1->   2)  (   2->   1)  (   3->   3)  (   4->   4) 


 irot  :  44
 --------------------------------------------------------------------
 isymop:   1   0   0
           0   0   1
           0   1   0

 gtrans:     0.0000000     0.0000000     0.0000000

 ptrans:     0.0000000     0.0000000     0.0000000
 rotmap:
 (   1->   1)  (   2->   2)  (   3->   4)  (   4->   3) 

 ptrans:     0.5000000     0.5000000     0.0000000
 rotmap:
 (   1->   4)  (   2->   3)  (   3->   1)  (   4->   2) 

 ptrans:     0.5000000     0.0000000     0.5000000
 rotmap:
 (   1->   3)  (   2->   4)  (   3->   2)  (   4->   1) 

 ptrans:     0.0000000     0.5000000     0.5000000
 rotmap:
 (   1->   2)  (   2->   1)  (   3->   3)  (   4->   4) 


 irot  :  45
 --------------------------------------------------------------------
 isymop:   0  -1   0
          -1   0   0
           0   0  -1

 gtrans:     0.0000000     0.0000000     0.0000000

 ptrans:     0.0000000     0.0000000     0.0000000
 rotmap:
 (   1->   1)  (   2->   3)  (   3->   2)  (   4->   4) 

 ptrans:     0.5000000     0.5000000     0.0000000
 rotmap:
 (   1->   4)  (   2->   2)  (   3->   3)  (   4->   1) 

 ptrans:     0.5000000     0.0000000     0.5000000
 rotmap:
 (   1->   3)  (   2->   1)  (   3->   4)  (   4->   2) 

 ptrans:     0.0000000     0.5000000     0.5000000
 rotmap:
 (   1->   2)  (   2->   4)  (   3->   1)  (   4->   3) 


 irot  :  46
 --------------------------------------------------------------------
 isymop:   0   1   0
           1   0   0
           0   0   1

 gtrans:     0.0000000     0.0000000     0.0000000

 ptrans:     0.0000000     0.0000000     0.0000000
 rotmap:
 (   1->   1)  (   2->   3)  (   3->   2)  (   4->   4) 

 ptrans:     0.5000000     0.5000000     0.0000000
 rotmap:
 (   1->   4)  (   2->   2)  (   3->   3)  (   4->   1) 

 ptrans:     0.5000000     0.0000000     0.5000000
 rotmap:
 (   1->   3)  (   2->   1)  (   3->   4)  (   4->   2) 

 ptrans:     0.0000000     0.5000000     0.5000000
 rotmap:
 (   1->   2)  (   2->   4)  (   3->   1)  (   4->   3) 


 irot  :  47
 --------------------------------------------------------------------
 isymop:   0   0  -1
           0  -1   0
          -1   0   0

 gtrans:     0.0000000     0.0000000     0.0000000

 ptrans:     0.0000000     0.0000000     0.0000000
 rotmap:
 (   1->   1)  (   2->   4)  (   3->   3)  (   4->   2) 

 ptrans:     0.5000000     0.5000000     0.0000000
 rotmap:
 (   1->   4)  (   2->   1)  (   3->   2)  (   4->   3) 

 ptrans:     0.5000000     0.0000000     0.5000000
 rotmap:
 (   1->   3)  (   2->   2)  (   3->   1)  (   4->   4) 

 ptrans:     0.0000000     0.5000000     0.5000000
 rotmap:
 (   1->   2)  (   2->   3)  (   3->   4)  (   4->   1) 


 irot  :  48
 --------------------------------------------------------------------
 isymop:   0   0   1
           0   1   0
           1   0   0

 gtrans:     0.0000000     0.0000000     0.0000000

 ptrans:     0.0000000     0.0000000     0.0000000
 rotmap:
 (   1->   1)  (   2->   4)  (   3->   3)  (   4->   2) 

 ptrans:     0.5000000     0.5000000     0.0000000
 rotmap:
 (   1->   4)  (   2->   1)  (   3->   2)  (   4->   3) 

 ptrans:     0.5000000     0.0000000     0.5000000
 rotmap:
 (   1->   3)  (   2->   2)  (   3->   1)  (   4->   4) 

 ptrans:     0.0000000     0.5000000     0.5000000
 rotmap:
 (   1->   2)  (   2->   3)  (   3->   4)  (   4->   1) 
 
 
 KPOINTS: K-Points                                

Automatic generation of k-mesh.
Space group operators:
 irot       det(A)        alpha          n_x          n_y          n_z        tau_x        tau_y        tau_z
    1     1.000000     0.000000     1.000000     0.000000     0.000000     0.000000     0.000000     0.000000
    2    -1.000000     0.000000     1.000000     0.000000     0.000000     0.000000     0.000000     0.000000
    3     1.000000   120.000000    -0.577350    -0.577350    -0.577350     0.000000     0.000000     0.000000
    4    -1.000000   120.000000    -0.577350    -0.577350    -0.577350     0.000000     0.000000     0.000000
    5     1.000000   120.000000     0.577350     0.577350     0.577350     0.000000     0.000000     0.000000
    6    -1.000000   120.000000     0.577350     0.577350     0.577350     0.000000     0.000000     0.000000
    7     1.000000    90.000000     0.000000     0.000000    -1.000000     0.000000     0.000000     0.000000
    8    -1.000000    90.000000     0.000000     0.000000    -1.000000     0.000000     0.000000     0.000000
    9     1.000000   180.000000     0.000000    -0.707107    -0.707107     0.000000     0.000000     0.000000
   10    -1.000000   180.000000     0.000000    -0.707107    -0.707107     0.000000     0.000000     0.000000
   11     1.000000    90.000000     0.000000     1.000000     0.000000     0.000000     0.000000     0.000000
   12    -1.000000    90.000000     0.000000     1.000000     0.000000     0.000000     0.000000     0.000000
   13     1.000000   180.000000    -0.000000    -0.000000     1.000000     0.000000     0.000000     0.000000
   14    -1.000000   180.000000    -0.000000    -0.000000     1.000000     0.000000     0.000000     0.000000
   15     1.000000   120.000000    -0.577350     0.577350     0.577350     0.000000     0.000000     0.000000
   16    -1.000000   120.000000    -0.577350     0.577350     0.577350     0.000000     0.000000     0.000000
   17     1.000000   120.000000    -0.577350     0.577350    -0.577350     0.000000     0.000000     0.000000
   18    -1.000000   120.000000    -0.577350     0.577350    -0.577350     0.000000     0.000000     0.000000
   19     1.000000    90.000000    -0.000000    -0.000000     1.000000     0.000000     0.000000     0.000000
   20    -1.000000    90.000000    -0.000000    -0.000000     1.000000     0.000000     0.000000     0.000000
   21     1.000000    90.000000    -1.000000     0.000000    -0.000000     0.000000     0.000000     0.000000
   22    -1.000000    90.000000    -1.000000     0.000000    -0.000000     0.000000     0.000000     0.000000
   23     1.000000   180.000000    -0.707107     0.000000    -0.707107     0.000000     0.000000     0.000000
   24    -1.000000   180.000000    -0.707107     0.000000    -0.707107     0.000000     0.000000     0.000000
   25     1.000000   120.000000     0.577350    -0.577350     0.577350     0.000000     0.000000     0.000000
   26    -1.000000   120.000000     0.577350    -0.577350     0.577350     0.000000     0.000000     0.000000
   27     1.000000   120.000000    -0.577350    -0.577350     0.577350     0.000000     0.000000     0.000000
   28    -1.000000   120.000000    -0.577350    -0.577350     0.577350     0.000000     0.000000     0.000000
   29     1.000000   180.000000     1.000000    -0.000000     0.000000     0.000000     0.000000     0.000000
   30    -1.000000   180.000000     1.000000    -0.000000     0.000000     0.000000     0.000000     0.000000
   31     1.000000    90.000000    -0.000000    -1.000000     0.000000     0.000000     0.000000     0.000000
   32    -1.000000    90.000000    -0.000000    -1.000000     0.000000     0.000000     0.000000     0.000000
   33     1.000000   180.000000     0.707107     0.707107     0.000000     0.000000     0.000000     0.000000
   34    -1.000000   180.000000     0.707107     0.707107     0.000000     0.000000     0.000000     0.000000
   35     1.000000    90.000000     1.000000    -0.000000    -0.000000     0.000000     0.000000     0.000000
   36    -1.000000    90.000000     1.000000    -0.000000    -0.000000     0.000000     0.000000     0.000000
   37     1.000000   120.000000     0.577350    -0.577350    -0.577350     0.000000     0.000000     0.000000
   38    -1.000000   120.000000     0.577350    -0.577350    -0.577350     0.000000     0.000000     0.000000
   39     1.000000   180.000000     0.000000     1.000000     0.000000     0.000000     0.000000     0.000000
   40    -1.000000   180.000000     0.000000     1.000000     0.000000     0.000000     0.000000     0.000000
   41     1.000000   120.000000     0.577350     0.577350    -0.577350     0.000000     0.000000     0.000000
   42    -1.000000   120.000000     0.577350     0.577350    -0.577350     0.000000     0.000000     0.000000
   43     1.000000   180.000000    -0.000000    -0.707107     0.707107     0.000000     0.000000     0.000000
   44    -1.000000   180.000000    -0.000000    -0.707107     0.707107     0.000000     0.000000     0.000000
   45     1.000000   180.000000     0.707107    -0.707107     0.000000     0.000000     0.000000     0.000000
   46    -1.000000   180.000000     0.707107    -0.707107     0.000000     0.000000     0.000000     0.000000
   47     1.000000   180.000000     0.707107    -0.000000    -0.707107     0.000000     0.000000     0.000000
   48    -1.000000   180.000000     0.707107    -0.000000    -0.707107     0.000000     0.000000     0.000000
 
 Subroutine IBZKPT returns following result:
 ===========================================
 
 Found     10 irreducible k-points:
 
 Following reciprocal coordinates:
            Coordinates               Weight
  0.000000  0.000000  0.000000      1.000000
  0.200000  0.000000  0.000000      6.000000
  0.400000  0.000000  0.000000      6.000000
  0.200000  0.200000  0.000000     12.000000
  0.400000  0.200000  0.000000     24.000000
  0.400000  0.400000  0.000000     12.000000
  0.200000  0.200000  0.200000      8.000000
  0.400000  0.200000  0.200000     24.000000
  0.400000  0.400000  0.200000     24.000000
  0.400000  0.400000  0.400000      8.000000
 
 Following cartesian coordinates:
            Coordinates               Weight
  0.000000  0.000000  0.000000      1.000000
  0.046297 -0.000000  0.000000      6.000000
  0.092595 -0.000000  0.000000      6.000000
  0.046297  0.046297  0.000000     12.000000
  0.092595  0.046297  0.000000     24.000000
  0.092595  0.092595  0.000000     12.000000
  0.046297  0.046297  0.046297      8.000000
  0.092595  0.046297  0.046297     24.000000
  0.092595  0.092595  0.046297     24.000000
  0.092595  0.092595  0.092595      8.000000
 


--------------------------------------------------------------------------------------------------------




 Dimension of arrays:
   k-points           NKPTS =     10   k-points in BZ     NKDIM =     10   number of bands    NBANDS=      8
   number of dos      NEDOS =    301   number of ions     NIONS =      4
   non local maximal  LDIM  =      3   non local SUM 2l+1 LMDIM =      5
   total plane-waves  NPLWV =   8000
   max r-space proj   IRMAX =      1   max aug-charges    IRDMAX=   3375
   dimension x,y,z NGX =    20 NGY =   20 NGZ =   20
   dimension x,y,z NGXF=    40 NGYF=   40 NGZF=   40
   support grid    NGXF=    40 NGYF=   40 NGZF=   40
   ions per type =               4
 NGX,Y,Z   is equivalent  to a cutoff of   7.70,  7.70,  7.70 a.u.
 NGXF,Y,Z  is equivalent  to a cutoff of  15.39, 15.39, 15.39 a.u.


 I would recommend the setting:
   dimension x,y,z NGX =    20 NGY =   20 NGZ =   20
 SYSTEM =  Crystal                                 
 POSCAR =  Li4                                     

 Startparameter for this run:
   NWRITE =      2    write-flag & timer
   PREC   = normal    normal or accurate (medium, high low for compatibility)
   ISTART =      0    job   : 0-new  1-cont  2-samecut
   ICHARG =      2    charge: 1-file 2-atom 10-const
   ISPIN  =      2    spin polarized calculation?
   LNONCOLLINEAR =      F non collinear calculations
   LSORBIT =      F    spin-orbit coupling
   INIWAV =      1    electr: 0-lowe 1-rand  2-diag
   LASPH  =      F    aspherical Exc in radial PAW
   METAGGA=      F    non-selfconsistent MetaGGA calc.

 Electronic Relaxation 1
   ENCUT  =  350.0 eV  25.72 Ry    5.07 a.u.   6.59  6.59  6.59*2*pi/ulx,y,z
   ENINI  =  350.0     initial cutoff
   ENAUG  =  331.6 eV  augmentation charge cutoff
   NELM   =     60;   NELMIN=  4; NELMDL=-10     # of ELM steps 
   EDIFF  = 0.1E-03   stopping-criterion for ELM
   LREAL  =      F    real-space projection
   NLSPLINE    = F    spline interpolate recip. space projectors
   LCOMPAT=      F    compatible to vasp.4.4
   GGA_COMPAT  = T    GGA compatible to vasp.4.4-vasp.4.6
   LMAXPAW     = -100 max onsite density
   LMAXMIX     =    2 max onsite mixed and CHGCAR
   VOSKOWN=      0    Vosko Wilk Nusair interpolation
   ROPT   =    0.00000
 Ionic relaxation
   EDIFFG = -.1E-01   stopping-criterion for IOM
   NSW    =    300    number of steps for IOM
   NBLOCK =      1;   KBLOCK =    300    inner block; outer block 
   IBRION =      2    ionic relax: 0-MD 1-quasi-New 2-CG
   NFREE  =      1    steps in history (QN), initial steepest desc. (CG)
   ISIF   =      3    stress and relaxation
   IWAVPR =     11    prediction:  0-non 1-charg 2-wave 3-comb
   ISYM   =      2    0-nonsym 1-usesym 2-fastsym
   LCORR  =      T    Harris-Foulkes like correction to forces

   POTIM  = 0.5000    time-step for ionic-motion
   TEIN   =    0.0    initial temperature
   TEBEG  =    0.0;   TEEND  =   0.0 temperature during run
   SMASS  =  -3.00    Nose mass-parameter (am)
   estimated Nose-frequenzy (Omega)   =  0.10E-29 period in steps =****** mass=  -0.426E-27a.u.
   SCALEE = 1.0000    scale energy and forces
   NPACO  =    256;   APACO  = 16.0  distance and # of slots for P.C.
   PSTRESS=    0.0 pullay stress

  Mass of Ions in am
   POMASS =   7.01
  Ionic Valenz
   ZVAL   =   1.00
  Atomic Wigner-Seitz radii
   RWIGS  =  -1.00
  virtual crystal weights 
   VCA    =   1.00
   NELECT =       4.0000    total number of electrons
   NUPDOWN=      -1.0000    fix difference up-down

 DOS related values:
   EMIN   =  10.00;   EMAX   =-10.00  energy-range for DOS
   EFERMI =   0.00
   ISMEAR =     2;   SIGMA  =   0.10  broadening in eV -4-tet -1-fermi 0-gaus

 Electronic relaxation 2 (details)
   IALGO  =     68    algorithm
   LDIAG  =      T    sub-space diagonalisation (order eigenvalues)
   LSUBROT=      T    optimize rotation matrix (better conditioning)
   TURBO    =      0    0=normal 1=particle mesh
   IRESTART =      0    0=no restart 2=restart with 2 vectors
   NREBOOT  =      0    no. of reboots
   NMIN     =      0    reboot dimension
   EREF     =   0.00    reference energy to select bands
   IMIX   =      4    mixing-type and parameters
     AMIX     =   0.40;   BMIX     =  1.00
     AMIX_MAG =   1.60;   BMIX_MAG =  1.00
     AMIN     =   0.10
     WC   =   100.;   INIMIX=   1;  MIXPRE=   1;  MAXMIX= -45

 Intra band minimization:
   WEIMIN = 0.0010     energy-eigenvalue tresh-hold
   EBREAK =  0.31E-05  absolut break condition
   DEPER  =   0.30     relativ break condition  

   TIME   =   0.40     timestep for ELM

  volume/ion in A,a.u.               =      20.15       136.00
  Fermi-wavevector in a.u.,A,eV,Ry     =   0.601574  1.136809  4.923824  0.361891
  Thomas-Fermi vector in A             =   1.653858
 
 Write flags
   LWAVE  =      F    write WAVECAR
   LCHARG =      F    write CHGCAR
   LVTOT  =      F    write LOCPOT, total local potential
   LVHAR  =      F    write LOCPOT, Hartree potential only
   LELF   =      F    write electronic localiz. function (ELF)
   LORBIT =      0    0 simple, 1 ext, 2 COOP (PROOUT)


 Dipole corrections
   LMONO  =      F    monopole corrections only (constant potential shift)
   LDIPOL =      F    correct potential (dipole corrections)
   IDIPOL =      0    1-x, 2-y, 3-z, 4-all directions 
   EPSILON=  1.0000000 bulk dielectric constant

 Exchange correlation treatment:
   GGA     =    --    GGA type
   LEXCH   =     8    internal setting for exchange type
   VOSKOWN=      0    Vosko Wilk Nusair interpolation
   LHFCALC =     F    Hartree Fock is set to
   LHFONE  =     F    Hartree Fock one center treatment
   AEXX    =    0.0000 exact exchange contribution

 Linear response parameters
   LEPSILON=     F    determine dielectric tensor
   LRPA    =     F    only Hartree local field effects (RPA)
   LNABLA  =     F    use nabla operator in PAW spheres
   LVEL    =     F    velocity operator in full k-point grid
   LINTERFAST=   F  fast interpolation
   KINTER  =     0    interpolate to denser k-point grid
   CSHIFT  =0.1000    complex shift for real part using Kramers Kronig
   OMEGAMAX=  -1.0    maximum frequency
   DEG_THRESHOLD= 0.2000000E-02 threshold for treating states as degnerate
   RTIME   =    0.100 relaxation time in fs

 Orbital magnetization related:
   ORBITALMAG=     F  switch on orbital magnetization
   LCHIMAG   =     F  perturbation theory with respect to B field
   DQ        =  0.001000  dq finite difference perturbation B field



--------------------------------------------------------------------------------------------------------


 conjugate gradient relaxation of ions
 charge density and potential will be updated during run
 spin polarized calculation
 RMM-DIIS sequential band-by-band and
  variant of blocked Davidson during initial phase
 perform sub-space diagonalisation
    before iterative eigenvector-optimisation
 modified Broyden-mixing scheme, WC =      100.0
 initial mixing is a Kerker type mixing with AMIX =  0.4000 and BMIX =      1.0000
 Hartree-type preconditioning will be used
 using additional bands            6
 reciprocal scheme for non local part
 use partial core corrections
 calculate Harris-corrections to forces 
   (improved forces if not selfconsistent)
 use gradient corrections 
 use of overlap-Matrix (Vanderbilt PP)
 Methfessel and Paxton  Order N= 2 SIGMA  =   0.10


--------------------------------------------------------------------------------------------------------


  energy-cutoff  :      350.00
  volume of cell :       80.62
      direct lattice vectors                 reciprocal lattice vectors
     4.319890000  0.000000000  0.000000000     0.231487376 -0.000000000  0.000000000
     0.000000000  4.319890000  0.000000000     0.000000000  0.231487376  0.000000000
     0.000000000  0.000000000  4.319890000    -0.000000000 -0.000000000  0.231487376

  length of vectors
     4.319890000  4.319890000  4.319890000     0.231487376  0.231487376  0.231487376


 
 k-points in units of 2pi/SCALE and weight: K-Points                                
   0.00000000  0.00000000  0.00000000       0.008
   0.04629748 -0.00000000  0.00000000       0.048
   0.09259495 -0.00000000  0.00000000       0.048
   0.04629748  0.04629748  0.00000000       0.096
   0.09259495  0.04629748  0.00000000       0.192
   0.09259495  0.09259495  0.00000000       0.096
   0.04629748  0.04629748  0.04629748       0.064
   0.09259495  0.04629748  0.04629748       0.192
   0.09259495  0.09259495  0.04629748       0.192
   0.09259495  0.09259495  0.09259495       0.064
 
 k-points in reciprocal lattice and weights: K-Points                                
   0.00000000  0.00000000  0.00000000       0.008
   0.20000000  0.00000000  0.00000000       0.048
   0.40000000  0.00000000  0.00000000       0.048
   0.20000000  0.20000000  0.00000000       0.096
   0.40000000  0.20000000  0.00000000       0.192
   0.40000000  0.40000000  0.00000000       0.096
   0.20000000  0.20000000  0.20000000       0.064
   0.40000000  0.20000000  0.20000000       0.192
   0.40000000  0.40000000  0.20000000       0.192
   0.40000000  0.40000000  0.40000000       0.064
 
 position of ions in fractional coordinates (direct lattice) 
   0.00000000  0.00000000  0.00000000
   0.00000000  0.50000000  0.50000000
   0.50000000  0.00000000  0.50000000
   0.50000000  0.50000000  0.00000000
 
 position of ions in cartesian coordinates  (Angst):
   0.00000000  0.00000000  0.00000000
   0.00000000  2.15994500  2.15994500
   2.15994500  0.00000000  2.15994500
   2.15994500  2.15994500  0.00000000
 


--------------------------------------------------------------------------------------------------------


 k-point  1 :   0.0000 0.0000 0.0000  plane waves:    1213
 k-point  2 :   0.2000 0.0000 0.0000  plane waves:    1201
 k-point  3 :   0.4000 0.0000 0.0000  plane waves:    1197
 k-point  4 :   0.2000 0.2000 0.0000  plane waves:    1207
 k-point  5 :   0.4000 0.2000 0.0000  plane waves:    1210
 k-point  6 :   0.4000 0.4000 0.0000  plane waves:    1198
 k-point  7 :   0.2000 0.2000 0.2000  plane waves:    1211
 k-point  8 :   0.4000 0.2000 0.2000  plane waves:    1186
 k-point  9 :   0.4000 0.4000 0.2000  plane waves:    1190
 k-point 10 :   0.4000 0.4000 0.4000  plane waves:    1196

 maximum and minimum number of plane-waves per node :      1213     1186

 maximum number of plane-waves:      1213
 maximum index in each direction: 
   IXMAX=    6   IYMAX=    6   IZMAX=    6
   IXMIN=   -6   IYMIN=   -6   IZMIN=   -6

 WARNING: aliasing errors must be expected set NGX to  26 to avoid them
 WARNING: aliasing errors must be expected set NGY to  26 to avoid them
 WARNING: aliasing errors must be expected set NGZ to  26 to avoid them
 aliasing errors are usually negligible using standard VASP settings
 and one can safely disregard these warnings

 serial   3D FFT for wavefunctions
 parallel 3D FFT for charge:
    minimum data exchange during FFTs selected (reduces bandwidth)


 total amount of memory used by VASP on root node    41451. kBytes
========================================================================

   base      :      30000. kBytes
   nonl-proj :        562. kBytes
   fftplans  :       2284. kBytes
   grid      :       5440. kBytes
   one-center:          9. kBytes
   wavefun   :       3156. kBytes
 
 Broyden mixing: mesh for mixing (old mesh)
   NGX = 13   NGY = 13   NGZ = 13
  (NGX  = 40   NGY  = 40   NGZ  = 40)
  gives a total of   2197 points

 initial charge density was supplied:
 charge density of overlapping atoms calculated
 number of electron       4.0000000 magnetization       4.0000000
 keeping initial charge density in first step


--------------------------------------------------------------------------------------------------------


 Maximum index for augmentation-charges         3071 (set IRDMAX)


--------------------------------------------------------------------------------------------------------


 First call to EWALD:  gamma=   0.410
 Maximum number of real-space cells 3x 3x 3
 Maximum number of reciprocal cells 3x 3x 3

 FEWALD executed in parallel
    FEWALD:  cpu time    0.00: real time    0.00


----------------------------------------- Iteration    1(   1)  ---------------------------------------


    POTLOK:  cpu time    0.11: real time    0.11
    SETDIJ:  cpu time    0.02: real time    0.03
     EDDAV:  cpu time    0.26: real time    0.28
       DOS:  cpu time    0.00: real time    0.00
    --------------------------------------------
      LOOP:  cpu time    0.40: real time    0.41

 eigenvalue-minimisations  :   328
 total energy-change (2. order) :-0.5132575E+01  (-0.1060604E+03)
 number of electron       4.0000000 magnetization       4.0000000
 augmentation part        4.0000000 magnetization       4.0000000

 Free energy of the ion-electron system (eV)
  ---------------------------------------------------
  alpha Z        PSCENC =         0.51993978
  Ewald energy   TEWEN  =       -30.56607402
  -1/2 Hartree   DENC   =        -0.01823458
  -exchange  EXHF       =         0.00000000
  -V(xc)+E(xc)   XCENC  =       -15.85737038
  PAW double counting   =        30.11914309       -7.88618898
  entropy T*S    EENTRO =        -0.00003913
  eigenvalues    EBANDS =        -2.64409130
  atomic energy  EATOM  =        21.20034096
  ---------------------------------------------------
  free energy    TOTEN  =        -5.13257457 eV

  energy without entropy =       -5.13253544  energy(sigma->0) =       -5.13256479


--------------------------------------------------------------------------------------------------------




----------------------------------------- Iteration    1(   2)  ---------------------------------------


     EDDAV:  cpu time    0.36: real time    0.36
       DOS:  cpu time    0.00: real time    0.00
    --------------------------------------------
      LOOP:  cpu time    0.36: real time    0.36

 eigenvalue-minimisations  :   488
 total energy-change (2. order) :-0.1665228E+01  (-0.1542753E+01)
 number of electron       4.0000000 magnetization       4.0000000
 augmentation part        4.0000000 magnetization       4.0000000

 Free energy of the ion-electron system (eV)
  ---------------------------------------------------
  alpha Z        PSCENC =         0.51993978
  Ewald energy   TEWEN  =       -30.56607402
  -1/2 Hartree   DENC   =        -0.01823458
  -exchange  EXHF       =         0.00000000
  -V(xc)+E(xc)   XCENC  =       -15.85737038
  PAW double counting   =        30.11914309       -7.88618898
  entropy T*S    EENTRO =        -0.00462423
  eigenvalues    EBANDS =        -4.30473446
  atomic energy  EATOM  =        21.20034096
  ---------------------------------------------------
  free energy    TOTEN  =        -6.79780283 eV

  energy without entropy =       -6.79317860  energy(sigma->0) =       -6.79664677


--------------------------------------------------------------------------------------------------------




----------------------------------------- Iteration    1(   3)  ---------------------------------------


     EDDAV:  cpu time    0.27: real time    0.27
       DOS:  cpu time    0.00: real time    0.00
    --------------------------------------------
      LOOP:  cpu time    0.27: real time    0.27

 eigenvalue-minimisations  :   352
 total energy-change (2. order) :-0.1897668E-01  (-0.1891432E-01)
 number of electron       4.0000000 magnetization       4.0000000
 augmentation part        4.0000000 magnetization       4.0000000

 Free energy of the ion-electron system (eV)
  ---------------------------------------------------
  alpha Z        PSCENC =         0.51993978
  Ewald energy   TEWEN  =       -30.56607402
  -1/2 Hartree   DENC   =        -0.01823458
  -exchange  EXHF       =         0.00000000
  -V(xc)+E(xc)   XCENC  =       -15.85737038
  PAW double counting   =        30.11914309       -7.88618898
  entropy T*S    EENTRO =        -0.00399245
  eigenvalues    EBANDS =        -4.32434292
  atomic energy  EATOM  =        21.20034096
  ---------------------------------------------------
  free energy    TOTEN  =        -6.81677951 eV

  energy without entropy =       -6.81278706  energy(sigma->0) =       -6.81578140


--------------------------------------------------------------------------------------------------------




----------------------------------------- Iteration    1(   4)  ---------------------------------------


     EDDAV:  cpu time    0.34: real time    0.35
       DOS:  cpu time    0.00: real time    0.00
    --------------------------------------------
      LOOP:  cpu time    0.35: real time    0.35

 eigenvalue-minimisations  :   464
 total energy-change (2. order) :-0.6027294E-04  (-0.6027296E-04)
 number of electron       4.0000000 magnetization       4.0000000
 augmentation part        4.0000000 magnetization       4.0000000

 Free energy of the ion-electron system (eV)
  ---------------------------------------------------
  alpha Z        PSCENC =         0.51993978
  Ewald energy   TEWEN  =       -30.56607402
  -1/2 Hartree   DENC   =        -0.01823458
  -exchange  EXHF       =         0.00000000
  -V(xc)+E(xc)   XCENC  =       -15.85737038
  PAW double counting   =        30.11914309       -7.88618898
  entropy T*S    EENTRO =        -0.00399093
  eigenvalues    EBANDS =        -4.32440472
  atomic energy  EATOM  =        21.20034096
  ---------------------------------------------------
  free energy    TOTEN  =        -6.81683979 eV

  energy without entropy =       -6.81284886  energy(sigma->0) =       -6.81584205


--------------------------------------------------------------------------------------------------------




----------------------------------------- Iteration    1(   5)  ---------------------------------------


     EDDAV:  cpu time    0.30: real time    0.30
       DOS:  cpu time    0.00: real time    0.00
    --------------------------------------------
      LOOP:  cpu time    0.30: real time    0.30

 eigenvalue-minimisations  :   392
 total energy-change (2. order) :-0.2897319E-06  (-0.2896839E-06)
 number of electron       4.0000000 magnetization       4.0000000
 augmentation part        4.0000000 magnetization       4.0000000

 Free energy of the ion-electron system (eV)
  ---------------------------------------------------
  alpha Z        PSCENC =         0.51993978
  Ewald energy   TEWEN  =       -30.56607402
  -1/2 Hartree   DENC   =        -0.01823458
  -exchange  EXHF       =         0.00000000
  -V(xc)+E(xc)   XCENC  =       -15.85737038
  PAW double counting   =        30.11914309       -7.88618898
  entropy T*S    EENTRO =        -0.00399090
  eigenvalues    EBANDS =        -4.32440504
  atomic energy  EATOM  =        21.20034096
  ---------------------------------------------------
  free energy    TOTEN  =        -6.81684008 eV

  energy without entropy =       -6.81284918  energy(sigma->0) =       -6.81584235


--------------------------------------------------------------------------------------------------------




----------------------------------------- Iteration    1(   6)  ---------------------------------------


     EDDAV:  cpu time    0.30: real time    0.30
       DOS:  cpu time    0.00: real time    0.00
    --------------------------------------------
      LOOP:  cpu time    0.30: real time    0.31

 eigenvalue-minimisations  :   392
 total energy-change (2. order) :-0.5930893E-08  (-0.5953109E-08)
 number of electron       4.0000000 magnetization       4.0000000
 augmentation part        4.0000000 magnetization       4.0000000

 Free energy of the ion-electron system (eV)
  ---------------------------------------------------
  alpha Z        PSCENC =         0.51993978
  Ewald energy   TEWEN  =       -30.56607402
  -1/2 Hartree   DENC   =        -0.01823458
  -exchange  EXHF       =         0.00000000
  -V(xc)+E(xc)   XCENC  =       -15.85737038
  PAW double counting   =        30.11914309       -7.88618898
  entropy T*S    EENTRO =        -0.00399090
  eigenvalues    EBANDS =        -4.32440505
  atomic energy  EATOM  =        21.20034096
  ---------------------------------------------------
  free energy    TOTEN  =        -6.81684008 eV

  energy without entropy =       -6.81284919  energy(sigma->0) =       -6.81584236


--------------------------------------------------------------------------------------------------------




----------------------------------------- Iteration    1(   7)  ---------------------------------------


     EDDAV:  cpu time    0.26: real time    0.26
       DOS:  cpu time    0.00: real time    0.00
    --------------------------------------------
      LOOP:  cpu time    0.26: real time    0.26

 eigenvalue-minimisations  :   312
 total energy-change (2. order) :-0.3822649E-09  (-0.4030364E-09)
 number of electron       4.0000000 magnetization       4.0000000
 augmentation part        4.0000000 magnetization       4.0000000

 Free energy of the ion-electron system (eV)
  ---------------------------------------------------
  alpha Z        PSCENC =         0.51993978
  Ewald energy   TEWEN  =       -30.56607402
  -1/2 Hartree   DENC   =        -0.01823458
  -exchange  EXHF       =         0.00000000
  -V(xc)+E(xc)   XCENC  =       -15.85737038
  PAW double counting   =        30.11914309       -7.88618898
  entropy T*S    EENTRO =        -0.00399090
  eigenvalues    EBANDS =        -4.32440505
  atomic energy  EATOM  =        21.20034096
  ---------------------------------------------------
  free energy    TOTEN  =        -6.81684008 eV

  energy without entropy =       -6.81284919  energy(sigma->0) =       -6.81584236


--------------------------------------------------------------------------------------------------------




----------------------------------------- Iteration    1(   8)  ---------------------------------------


     EDDAV:  cpu time    0.27: real time    0.27
       DOS:  cpu time    0.00: real time    0.00
    --------------------------------------------
      LOOP:  cpu time    0.27: real time    0.27

 eigenvalue-minimisations  :   320
 total energy-change (2. order) :-0.1174172E-09  (-0.9592825E-10)
 number of electron       4.0000000 magnetization       4.0000000
 augmentation part        4.0000000 magnetization       4.0000000

 Free energy of the ion-electron system (eV)
  ---------------------------------------------------
  alpha Z        PSCENC =         0.51993978
  Ewald energy   TEWEN  =       -30.56607402
  -1/2 Hartree   DENC   =        -0.01823458
  -exchange  EXHF       =         0.00000000
  -V(xc)+E(xc)   XCENC  =       -15.85737038
  PAW double counting   =        30.11914309       -7.88618898
  entropy T*S    EENTRO =        -0.00399090
  eigenvalues    EBANDS =        -4.32440505
  atomic energy  EATOM  =        21.20034096
  ---------------------------------------------------
  free energy    TOTEN  =        -6.81684008 eV

  energy without entropy =       -6.81284919  energy(sigma->0) =       -6.81584236


--------------------------------------------------------------------------------------------------------




----------------------------------------- Iteration    1(   9)  ---------------------------------------


     EDDAV:  cpu time    0.24: real time    0.25
       DOS:  cpu time    0.00: real time    0.00
    --------------------------------------------
      LOOP:  cpu time    0.25: real time    0.25

 eigenvalue-minimisations  :   296
 total energy-change (2. order) :-0.3186074E-10  (-0.2636811E-10)
 number of electron       4.0000000 magnetization       4.0000000
 augmentation part        4.0000000 magnetization       4.0000000

 Free energy of the ion-electron system (eV)
  ---------------------------------------------------
  alpha Z        PSCENC =         0.51993978
  Ewald energy   TEWEN  =       -30.56607402
  -1/2 Hartree   DENC   =        -0.01823458
  -exchange  EXHF       =         0.00000000
  -V(xc)+E(xc)   XCENC  =       -15.85737038
  PAW double counting   =        30.11914309       -7.88618898
  entropy T*S    EENTRO =        -0.00399090
  eigenvalues    EBANDS =        -4.32440505
  atomic energy  EATOM  =        21.20034096
  ---------------------------------------------------
  free energy    TOTEN  =        -6.81684008 eV

  energy without entropy =       -6.81284919  energy(sigma->0) =       -6.81584236


--------------------------------------------------------------------------------------------------------




----------------------------------------- Iteration    1(  10)  ---------------------------------------


     EDDAV:  cpu time    0.24: real time    0.24
       DOS:  cpu time    0.00: real time    0.00
    CHARGE:  cpu time    0.03: real time    0.03
    MIXING:  cpu time    0.00: real time    0.00
    --------------------------------------------
      LOOP:  cpu time    0.28: real time    0.28

 eigenvalue-minimisations  :   288
 total energy-change (2. order) :-0.8697043E-11  (-0.7327791E-11)
 number of electron       4.0000000 magnetization       1.3556348
 augmentation part        0.0320692 magnetization      -0.1990116

 Broyden mixing:
  rms(total) = 0.27366E+00    rms(broyden)= 0.27366E+00
  rms(prec ) = 0.27896E+00
  weight for this iteration     100.00

 Free energy of the ion-electron system (eV)
  ---------------------------------------------------
  alpha Z        PSCENC =         0.51993978
  Ewald energy   TEWEN  =       -30.56607402
  -1/2 Hartree   DENC   =        -0.01823458
  -exchange  EXHF       =         0.00000000
  -V(xc)+E(xc)   XCENC  =       -15.85737038
  PAW double counting   =        30.11914309       -7.88618898
  entropy T*S    EENTRO =        -0.00399090
  eigenvalues    EBANDS =        -4.32440505
  atomic energy  EATOM  =        21.20034096
  ---------------------------------------------------
  free energy    TOTEN  =        -6.81684008 eV

  energy without entropy =       -6.81284919  energy(sigma->0) =       -6.81584236


--------------------------------------------------------------------------------------------------------




----------------------------------------- Iteration    1(  11)  ---------------------------------------


    POTLOK:  cpu time    0.10: real time    0.11
    SETDIJ:  cpu time    0.03: real time    0.03
    EDDIAG:  cpu time    0.05: real time    0.05
  RMM-DIIS:  cpu time    0.21: real time    0.21
    ORTHCH:  cpu time    0.00: real time    0.00
       DOS:  cpu time    0.00: real time    0.00
    CHARGE:  cpu time    0.03: real time    0.03
    MIXING:  cpu time    0.00: real time    0.00
    --------------------------------------------
      LOOP:  cpu time    0.44: real time    0.44

 eigenvalue-minimisations  :   320
 total energy-change (2. order) :-0.6444089E+00  (-0.1206574E-01)
 number of electron       4.0000000 magnetization      -0.1016271
 augmentation part        0.0314726 magnetization      -0.5786748

 Broyden mixing:
  rms(total) = 0.10067E+00    rms(broyden)= 0.10067E+00
  rms(prec ) = 0.11004E+00
  weight for this iteration     100.00

 eigenvalues of (default mixing * dielectric matrix)
  average eigenvalue GAMMA=   1.5033
  1.5033

 Free energy of the ion-electron system (eV)
  ---------------------------------------------------
  alpha Z        PSCENC =         0.51993978
  Ewald energy   TEWEN  =       -30.56607402
  -1/2 Hartree   DENC   =        -0.02587314
  -exchange  EXHF       =         0.00000000
  -V(xc)+E(xc)   XCENC  =       -16.95265054
  PAW double counting   =        32.80777742      -10.58673073
  entropy T*S    EENTRO =        -0.00239051
  eigenvalues    EBANDS =        -3.85558818
  atomic energy  EATOM  =        21.20034096
  ---------------------------------------------------
  free energy    TOTEN  =        -7.46124896 eV

  energy without entropy =       -7.45885845  energy(sigma->0) =       -7.46065133


--------------------------------------------------------------------------------------------------------




----------------------------------------- Iteration    1(  12)  ---------------------------------------


    POTLOK:  cpu time    0.10: real time    0.10
    SETDIJ:  cpu time    0.03: real time    0.03
    EDDIAG:  cpu time    0.05: real time    0.05
  RMM-DIIS:  cpu time    0.21: real time    0.21
    ORTHCH:  cpu time    0.00: real time    0.00
       DOS:  cpu time    0.00: real time    0.00
    CHARGE:  cpu time    0.02: real time    0.03
    MIXING:  cpu time    0.00: real time    0.00
    --------------------------------------------
      LOOP:  cpu time    0.43: real time    0.43

 eigenvalue-minimisations  :   320
 total energy-change (2. order) :-0.1743352E+00  (-0.1421210E-01)
 number of electron       4.0000000 magnetization      -0.0546449
 augmentation part        0.0313187 magnetization      -0.0010477

 Broyden mixing:
  rms(total) = 0.20279E-01    rms(broyden)= 0.20279E-01
  rms(prec ) = 0.32346E-01
  weight for this iteration     100.00

 eigenvalues of (default mixing * dielectric matrix)
  average eigenvalue GAMMA=   1.1034
  1.5116  0.6951

 Free energy of the ion-electron system (eV)
  ---------------------------------------------------
  alpha Z        PSCENC =         0.51993978
  Ewald energy   TEWEN  =       -30.56607402
  -1/2 Hartree   DENC   =        -0.03702035
  -exchange  EXHF       =         0.00000000
  -V(xc)+E(xc)   XCENC  =       -17.02728459
  PAW double counting   =        35.36061562      -13.14993632
  entropy T*S    EENTRO =         0.00122297
  eigenvalues    EBANDS =        -3.93738824
  atomic energy  EATOM  =        21.20034096
  ---------------------------------------------------
  free energy    TOTEN  =        -7.63558420 eV

  energy without entropy =       -7.63680716  energy(sigma->0) =       -7.63588994


--------------------------------------------------------------------------------------------------------




----------------------------------------- Iteration    1(  13)  ---------------------------------------


    POTLOK:  cpu time    0.10: real time    0.11
    SETDIJ:  cpu time    0.03: real time    0.03
    EDDIAG:  cpu time    0.05: real time    0.05
  RMM-DIIS:  cpu time    0.21: real time    0.21
    ORTHCH:  cpu time    0.00: real time    0.00
       DOS:  cpu time    0.00: real time    0.00
    CHARGE:  cpu time    0.03: real time    0.03
    MIXING:  cpu time    0.00: real time    0.00
    --------------------------------------------
      LOOP:  cpu time    0.43: real time    0.43

 eigenvalue-minimisations  :   320
 total energy-change (2. order) :-0.3010107E-02  (-0.3813729E-03)
 number of electron       4.0000000 magnetization       0.0053551
 augmentation part        0.0312529 magnetization       0.0468508

 Broyden mixing:
  rms(total) = 0.99598E-02    rms(broyden)= 0.99598E-02
  rms(prec ) = 0.20896E-01
  weight for this iteration     100.00

 eigenvalues of (default mixing * dielectric matrix)
  average eigenvalue GAMMA=   1.1086
  1.3450  1.3450  0.6358

 Free energy of the ion-electron system (eV)
  ---------------------------------------------------
  alpha Z        PSCENC =         0.51993978
  Ewald energy   TEWEN  =       -30.56607402
  -1/2 Hartree   DENC   =        -0.04107467
  -exchange  EXHF       =         0.00000000
  -V(xc)+E(xc)   XCENC  =       -17.01688793
  PAW double counting   =        36.11338718      -13.90540878
  entropy T*S    EENTRO =         0.00102099
  eigenvalues    EBANDS =        -3.94383782
  atomic energy  EATOM  =        21.20034096
  ---------------------------------------------------
  free energy    TOTEN  =        -7.63859430 eV

  energy without entropy =       -7.63961529  energy(sigma->0) =       -7.63884955


--------------------------------------------------------------------------------------------------------




----------------------------------------- Iteration    1(  14)  ---------------------------------------


    POTLOK:  cpu time    0.10: real time    0.10
    SETDIJ:  cpu time    0.02: real time    0.03
    EDDIAG:  cpu time    0.06: real time    0.05
  RMM-DIIS:  cpu time    0.21: real time    0.21
    ORTHCH:  cpu time    0.00: real time    0.00
       DOS:  cpu time    0.00: real time    0.00
    --------------------------------------------
      LOOP:  cpu time    0.40: real time    0.40

 eigenvalue-minimisations  :   318
 total energy-change (2. order) : 0.8962846E-05  (-0.6138913E-04)
 number of electron       4.0000000 magnetization       0.0053551
 augmentation part        0.0312529 magnetization       0.0468508

 Free energy of the ion-electron system (eV)
  ---------------------------------------------------
  alpha Z        PSCENC =         0.51993978
  Ewald energy   TEWEN  =       -30.56607402
  -1/2 Hartree   DENC   =        -0.04966229
  -exchange  EXHF       =         0.00000000
  -V(xc)+E(xc)   XCENC  =       -16.99653635
  PAW double counting   =        37.28576047      -15.08325042
  entropy T*S    EENTRO =         0.00074606
  eigenvalues    EBANDS =        -3.94984953
  atomic energy  EATOM  =        21.20034096
  ---------------------------------------------------
  free energy    TOTEN  =        -7.63858534 eV

  energy without entropy =       -7.63933140  energy(sigma->0) =       -7.63877185


--------------------------------------------------------------------------------------------------------




 average (electrostatic) potential at core
  the test charge radii are     0.9748
  (the norm of the test charge is              1.0000)
       1 -30.5217       2 -30.5217       3 -30.5217       4 -30.5217
 
 
 
 E-fermi :   0.1986     XC(G=0):  -6.7813     alpha+bet : -7.2874

[...]
      LOOP:  cpu time    0.32: real time    0.32

 eigenvalue-minimisations  :   104
 total energy-change (2. order) : 0.1157258E-05  (-0.2878745E-06)
 number of electron       4.0000000 magnetization       0.0007029
 augmentation part        0.0309739 magnetization      -0.0005034

 Broyden mixing:
  rms(total) = 0.24891E-03    rms(broyden)= 0.24890E-03
  rms(prec ) = 0.57796E-03
  weight for this iteration     100.00

 eigenvalues of (default mixing * dielectric matrix)
  average eigenvalue GAMMA=   2.4697
  2.4697

 Free energy of the ion-electron system (eV)
  ---------------------------------------------------
  alpha Z        PSCENC =         0.51540989
  Ewald energy   TEWEN  =       -30.47704759
  -1/2 Hartree   DENC   =        -0.05180742
  -exchange  EXHF       =         0.00000000
  -V(xc)+E(xc)   XCENC  =       -17.00304143
  PAW double counting   =        37.21266052      -15.00990423
  entropy T*S    EENTRO =         0.00075097
  eigenvalues    EBANDS =        -4.02641088
  atomic energy  EATOM  =        21.20034096
  ---------------------------------------------------
  free energy    TOTEN  =        -7.63904922 eV

  energy without entropy =       -7.63980020  energy(sigma->0) =       -7.63923697


--------------------------------------------------------------------------------------------------------




----------------------------------------- Iteration    3(   3)  ---------------------------------------


    POTLOK:  cpu time    0.10: real time    0.10
    SETDIJ:  cpu time    0.02: real time    0.03
    EDDIAG:  cpu time    0.06: real time    0.05
  RMM-DIIS:  cpu time    0.20: real time    0.21
    ORTHCH:  cpu time    0.00: real time    0.00
       DOS:  cpu time    0.00: real time    0.00
    CHARGE:  cpu time    0.03: real time    0.03
    MIXING:  cpu time    0.00: real time    0.00
    --------------------------------------------
      LOOP:  cpu time    0.42: real time    0.42

 eigenvalue-minimisations  :     5
 total energy-change (2. order) : 0.1447098E-05  (-0.8941695E-41)
 number of electron       4.0000000 magnetization       0.0005443
 augmentation part        0.0309739 magnetization      -0.0000094

 Broyden mixing:
  rms(total) = 0.30587E-04    rms(broyden)= 0.30587E-04
  rms(prec ) = 0.34145E-04
  weight for this iteration     100.00

 eigenvalues of (default mixing * dielectric matrix)
  average eigenvalue GAMMA=   1.7494
  0.7842  2.7146

 Free energy of the ion-electron system (eV)
  ---------------------------------------------------
  alpha Z        PSCENC =         0.51540989
  Ewald energy   TEWEN  =       -30.47704759
  -1/2 Hartree   DENC   =        -0.05151569
  -exchange  EXHF       =         0.00000000
  -V(xc)+E(xc)   XCENC  =       -17.00352468
  PAW double counting   =        37.08700222      -14.88378653
  entropy T*S    EENTRO =         0.00075088
  eigenvalues    EBANDS =        -4.02667723
  atomic energy  EATOM  =        21.20034096
  ---------------------------------------------------
  free energy    TOTEN  =        -7.63904778 eV

  energy without entropy =       -7.63979866  energy(sigma->0) =       -7.63923550


--------------------------------------------------------------------------------------------------------




----------------------------------------- Iteration    3(   4)  ---------------------------------------


    POTLOK:  cpu time    0.10: real time    0.10
    SETDIJ:  cpu time    0.03: real time    0.03
    EDDIAG:  cpu time    0.05: real time    0.05
  RMM-DIIS:  cpu time    0.21: real time    0.21
    ORTHCH:  cpu time    0.00: real time    0.00
       DOS:  cpu time    0.00: real time    0.00
    --------------------------------------------
      LOOP:  cpu time    0.40: real time    0.39

 eigenvalue-minimisations  :     4
 total energy-change (2. order) :-0.5633635E-07  (-0.1893394E-98)
 number of electron       4.0000000 magnetization       0.0005443
 augmentation part        0.0309739 magnetization      -0.0000094

 Free energy of the ion-electron system (eV)
  ---------------------------------------------------
  alpha Z        PSCENC =         0.51540989
  Ewald energy   TEWEN  =       -30.47704759
  -1/2 Hartree   DENC   =        -0.05151546
  -exchange  EXHF       =         0.00000000
  -V(xc)+E(xc)   XCENC  =       -17.00353220
  PAW double counting   =        37.09411016      -14.89092032
  entropy T*S    EENTRO =         0.00075087
  eigenvalues    EBANDS =        -4.02664414
  atomic energy  EATOM  =        21.20034096
  ---------------------------------------------------
  free energy    TOTEN  =        -7.63904783 eV

  energy without entropy =       -7.63979870  energy(sigma->0) =       -7.63923555


--------------------------------------------------------------------------------------------------------




 average (electrostatic) potential at core
  the test charge radii are     0.9748
  (the norm of the test charge is              1.0000)
       1 -30.5674       2 -30.5674       3 -30.5674       4 -30.5674
 
 
 
 E-fermi :   0.1758     XC(G=0):  -6.7632     alpha+bet : -7.2239


 spin component 1

 k-point   1 :       0.0000    0.0000    0.0000
  band No.  band energies     occupation 
      1      -3.1803      1.00000
      2       1.9232      0.00000
      3       1.9232      0.00000
      4       1.9232      0.00000
      5       5.0781      0.00000
      6       5.0781      0.00000
      7       5.0781      0.00000
      8       8.8179      0.00000

 k-point   2 :       0.2000    0.0000    0.0000
  band No.  band energies     occupation 
      1      -2.9402      1.00000
      2       0.6445      0.00000
      3       2.2376      0.00000
      4       2.2376      0.00000
      5       4.9662      0.00000
      6       4.9662      0.00000
      7       6.8724      0.00000
      8       6.8724      0.00000

 k-point   3 :       0.4000    0.0000    0.0000
  band No.  band energies     occupation 
      1      -2.2150      1.00000
      2      -1.0007      1.00000
      3       3.1789      0.00000
      4       3.1789      0.00000
      5       4.7384      0.00000
      6       4.7384      0.00000
      7       4.8003      0.00000
      8       4.8003      0.00000

 k-point   4 :       0.2000    0.2000    0.0000
  band No.  band energies     occupation 
      1      -2.7004      1.00000
      2       0.8960      0.00000
      3       0.8960      0.00000
      4       2.5518      0.00000
      5       4.1660      0.00000
      6       6.7518      0.00000
      7       6.8072      0.00000
      8       6.8072      0.00000

 k-point   5 :       0.4000    0.2000    0.0000
  band No.  band energies     occupation 
      1      -1.9764      1.00000
      2      -0.7620      1.00000
      3       1.6339      0.00000
      4       2.7930      0.00000
      5       3.4926      0.00000
      6       5.0512      0.00000
      7       6.5882      0.00000
      8       6.5926      0.00000

 k-point   6 :       0.4000    0.4000    0.0000
  band No.  band energies     occupation 
      1      -1.2558      1.00000
      2      -0.0452      0.99585
      3      -0.0452      0.99585
      4       1.1477      0.00000
      5       4.4320      0.00000
      6       5.9871      0.00000
      7       5.9871      0.00000
      8       7.5346      0.00000

 k-point   7 :       0.2000    0.2000    0.2000
  band No.  band energies     occupation 
      1      -2.4622      1.00000
      2       1.1161      0.00000
      3       1.1161      0.00000
      4       1.1161      0.00000
      5       5.2945      0.00000
      6       5.2945      0.00000
      7       5.2945      0.00000
      8       7.9417      0.00000

 k-point   8 :       0.4000    0.2000    0.2000
  band No.  band energies     occupation 
      1      -1.7431      1.00000
      2      -0.5375      1.00000
      3       1.6438      0.00000
      4       1.6438      0.00000
      5       3.9039      0.00000
      6       3.9039      0.00000
      7       6.4813      0.00000
      8       7.9629      0.00000

 k-point   9 :       0.4000    0.4000    0.2000
  band No.  band energies     occupation 
      1      -1.0422      1.00000
      2       0.1172      0.98158
      3       0.1172      0.98158
      4       1.0706      0.00000
      5       3.6763      0.00000
      6       4.7677      0.00000
      7       4.7677      0.00000
      8       6.1365      0.00000

 k-point  10 :       0.4000    0.4000    0.4000
  band No.  band energies     occupation 
      1      -0.4237      1.00000
      2       0.4614      0.00056
      3       0.4614      0.00056
      4       0.4614      0.00056
      5       3.5329      0.00000
      6       3.5329      0.00000
      7       3.5329      0.00000
      8       4.5226      0.00000

 spin component 2

 k-point   1 :       0.0000    0.0000    0.0000
  band No.  band energies     occupation 
      1      -3.1800      1.00000
      2       1.9234      0.00000
      3       1.9234      0.00000
      4       1.9234      0.00000
      5       5.0785      0.00000
      6       5.0785      0.00000
      7       5.0785      0.00000
      8       8.8181      0.00000

 k-point   2 :       0.2000    0.0000    0.0000
  band No.  band energies     occupation 
      1      -2.9399      1.00000
      2       0.6447      0.00000
      3       2.2378      0.00000
      4       2.2378      0.00000
      5       4.9666      0.00000
      6       4.9666      0.00000
      7       6.8726      0.00000
      8       6.8726      0.00000

 k-point   3 :       0.4000    0.0000    0.0000
  band No.  band energies     occupation 
      1      -2.2148      1.00000
      2      -1.0004      1.00000
      3       3.1791      0.00000
      4       3.1791      0.00000
      5       4.7386      0.00000
      6       4.7386      0.00000
      7       4.8006      0.00000
      8       4.8006      0.00000

 k-point   4 :       0.2000    0.2000    0.0000
  band No.  band energies     occupation 
      1      -2.7002      1.00000
      2       0.8963      0.00000
      3       0.8963      0.00000
      4       2.5520      0.00000
      5       4.1663      0.00000
      6       6.7521      0.00000
      7       6.8075      0.00000
      8       6.8075      0.00000

 k-point   5 :       0.4000    0.2000    0.0000
  band No.  band energies     occupation 
      1      -1.9761      1.00000
      2      -0.7617      1.00000
      3       1.6342      0.00000
      4       2.7933      0.00000
      5       3.4929      0.00000
      6       5.0514      0.00000
      7       6.5885      0.00000
      8       6.5929      0.00000

 k-point   6 :       0.4000    0.4000    0.0000
  band No.  band energies     occupation 
      1      -1.2555      1.00000
      2      -0.0449      0.99583
      3      -0.0449      0.99583
      4       1.1480      0.00000
      5       4.4323      0.00000
      6       5.9874      0.00000
      7       5.9874      0.00000
      8       7.5349      0.00000

 k-point   7 :       0.2000    0.2000    0.2000
  band No.  band energies     occupation 
      1      -2.4619      1.00000
      2       1.1164      0.00000
      3       1.1164      0.00000
      4       1.1164      0.00000
      5       5.2948      0.00000
      6       5.2948      0.00000
      7       5.2948      0.00000
      8       7.9420      0.00000

 k-point   8 :       0.4000    0.2000    0.2000
  band No.  band energies     occupation 
      1      -1.7428      1.00000
      2      -0.5372      1.00000
      3       1.6440      0.00000
      4       1.6440      0.00000
      5       3.9042      0.00000
      6       3.9042      0.00000
      7       6.4815      0.00000
      8       7.9632      0.00000

 k-point   9 :       0.4000    0.4000    0.2000
  band No.  band energies     occupation 
      1      -1.0419      1.00000
      2       0.1175      0.98035
      3       0.1175      0.98035
      4       1.0709      0.00000
      5       3.6765      0.00000
      6       4.7680      0.00000
      7       4.7680      0.00000
      8       6.1368      0.00000

 k-point  10 :       0.4000    0.4000    0.4000
  band No.  band energies     occupation 
      1      -0.4234      1.00000
      2       0.4617      0.00056
      3       0.4617      0.00056
      4       0.4617      0.00056
      5       3.5332      0.00000
      6       3.5332      0.00000
      7       3.5332      0.00000
      8       4.5229      0.00000


--------------------------------------------------------------------------------------------------------


 soft charge-density along one line, spin component           1
         0         1         2         3         4         5         6         7         8         9
 total charge-density along one line
 
 soft charge-density along one line, spin component           2
         0         1         2         3         4         5         6         7         8         9
 total charge-density along one line
 
 pseudopotential strength for first ion, spin component:           1
  1.157   5.299  -0.000   0.000   0.000
  5.299  23.085  -0.000   0.000   0.000
 -0.000  -0.000  -0.468  -0.000   0.000
  0.000   0.000  -0.000  -0.468  -0.000
  0.000   0.000   0.000  -0.000  -0.468
 pseudopotential strength for first ion, spin component:           2
  1.157   5.299  -0.000   0.000   0.000
  5.299  23.085  -0.000   0.000   0.000
 -0.000  -0.000  -0.468  -0.000   0.000
  0.000   0.000  -0.000  -0.468  -0.000
  0.000   0.000   0.000  -0.000  -0.468
 total augmentation occupancy for first ion, spin component:           1
  1.112  -0.015   0.000   0.000  -0.000
 -0.015   0.000   0.000  -0.000   0.000
  0.000   0.000   0.046   0.000   0.000
  0.000   0.000   0.000   0.046   0.000
 -0.000   0.000   0.000   0.000   0.046
 total augmentation occupancy for first ion, spin component:           2
  0.000  -0.000   0.000  -0.000   0.000
 -0.000  -0.000  -0.000   0.000  -0.000
  0.000   0.000   0.000   0.000   0.000
 -0.000   0.000   0.000   0.000   0.000
 -0.000   0.000   0.000   0.000   0.000


------------------------ aborting loop because EDIFF is reached ----------------------------------------


    CHARGE:  cpu time    0.02: real time    0.03
    FORLOC:  cpu time    0.00: real time    0.00
    FORNL :  cpu time    0.08: real time    0.08
    STRESS:  cpu time    0.19: real time    0.19
    FORCOR:  cpu time    0.11: real time    0.11
    FORHAR:  cpu time    0.01: real time    0.01
    MIXING:  cpu time    0.00: real time    0.00

  FORCE on cell =-STRESS in cart. coord.  units (eV):
  Direction    XX          YY          ZZ          XY          YZ          ZX
  --------------------------------------------------------------------------------------
  Alpha Z     0.51541     0.51541     0.51541
  Ewald     -10.15902   -10.15902   -10.15902    -0.00000     0.00000     0.00000
  Hartree     0.01717     0.01717     0.01717    -0.00000    -0.00000    -0.00000
  E(xc)      -7.00974    -7.00974    -7.00974     0.00000    -0.00000    -0.00000
  Local       0.54975     0.54975     0.54975     0.00000     0.00000     0.00000
  n-local     5.48365     6.08070     6.67363     0.17058    -0.05900    -0.01681
  augment     0.25798     0.25798     0.25798     0.00000     0.00000    -0.00000
  Kinetic    15.68436     9.43624     4.12700    -2.62462     1.43297     0.61913
  Fock        0.00000     0.00000     0.00000     0.00000     0.00000     0.00000
  -------------------------------------------------------------------------------------
  Total       0.00008     0.00008     0.00008     0.00000     0.00000     0.00000
  in kB       0.00157     0.00157     0.00157     0.00000     0.00000     0.00000
  external pressure =        0.00 kB  Pullay stress =        0.00 kB


 VOLUME and BASIS-vectors are now :
 -----------------------------------------------------------------------------
  energy-cutoff  :      350.00
  volume of cell :       81.32
      direct lattice vectors                 reciprocal lattice vectors
     4.332508820  0.000000000  0.000000000     0.230813148 -0.000000000 -0.000000000
     0.000000000  4.332508820  0.000000000    -0.000000000  0.230813148  0.000000000
     0.000000000  0.000000000  4.332508820    -0.000000000 -0.000000000  0.230813148

  length of vectors
     4.332508820  4.332508820  4.332508820     0.230813148  0.230813148  0.230813148


 FORCES acting on ions
    electron-ion (+dipol)            ewald-force                    non-local-force                 convergence-correction
 -----------------------------------------------------------------------------------------------
   -.337E-15 -.925E-16 0.208E-15   0.137E-16 -.107E-15 -.208E-16   -.253E-23 0.165E-23 -.496E-23   -.335E-16 0.263E-17 0.743E-17
   -.333E-15 -.442E-16 0.243E-16   0.840E-17 0.420E-16 0.810E-16   -.222E-23 -.579E-23 -.331E-23   -.336E-16 -.273E-17 -.887E-17
   -.119E-14 -.223E-15 -.131E-14   -.178E-16 -.523E-16 -.500E-17   0.127E-23 -.165E-23 -.165E-23   0.385E-16 0.223E-17 -.876E-17
   -.934E-15 -.177E-15 0.107E-14   -.231E-16 0.971E-16 -.328E-16   -.118E-23 -.331E-23 0.517E-23   0.378E-16 -.309E-17 0.781E-17
 -----------------------------------------------------------------------------------------------
   -.279E-14 -.537E-15 -.787E-17   -.188E-16 -.207E-16 0.225E-16   -.467E-23 -.910E-23 -.476E-23   0.928E-17 -.957E-18 -.239E-17
 
 
 POSITION                                       TOTAL-FORCE (eV/Angst)
 -----------------------------------------------------------------------------------
      0.00000     -0.00000      0.00000        -0.000000     -0.000000     -0.000000
      0.00000      2.16625      2.16625         0.000000      0.000000     -0.000000
      2.16625      0.00000      2.16625        -0.000000     -0.000000      0.000000
      2.16625      2.16625      0.00000         0.000000     -0.000000      0.000000
 -----------------------------------------------------------------------------------
    total drift:                               -0.000000     -0.000000      0.000000


--------------------------------------------------------------------------------------------------------



  FREE ENERGIE OF THE ION-ELECTRON SYSTEM (eV)
  ---------------------------------------------------
  free  energy   TOTEN  =        -7.63904783 eV

  energy  without entropy=       -7.63979870  energy(sigma->0) =       -7.63923555
 
 d Force = 0.0000000E+00[ 0.000E+00, 0.000E+00]  d Energy = 0.1535811E-03-0.154E-03
 d Force = 0.0000000E+00[ 0.000E+00, 0.000E+00]  d Ewald  =-0.6672110E-01 0.667E-01


--------------------------------------------------------------------------------------------------------


    POTLOK:  cpu time    0.13: real time    0.13


--------------------------------------------------------------------------------------------------------




--------------------------------------------------------------------------------------------------------


  
 reached required accuracy - stopping structural energy minimisation
     LOOP+:  cpu time    2.14: real time    2.14
    4ORBIT:  cpu time    0.00: real time    0.00

 total amount of memory used by VASP on root node    41451. kBytes
========================================================================

   base      :      30000. kBytes
   nonl-proj :        562. kBytes
   fftplans  :       2284. kBytes
   grid      :       5440. kBytes
   one-center:          9. kBytes
   wavefun   :       3156. kBytes
 
  
  
 General timing and accounting informations for this job:
 ========================================================
  
                  Total CPU time used (sec):        9.832
                            User time (sec):        9.804
                          System time (sec):        0.028
                         Elapsed time (sec):        9.864
  
                   Maximum memory used (kb):       50472.
                   Average memory used (kb):           0.
  
                          Minor page faults:        12959
                          Major page faults:            0
                 Voluntary context switches:            1
