<?xml version="1.0" encoding="ISO-8859-1"?>
<modeling>
 <generator>
  <i name="program" type="string">vasp </i>
  <i name="version" type="string">5.3.3  </i>
  <i name="subversion" type="string">18Dez12 (build Sep  7 2015 22:32:56) complex                          parallel </i>
  <i name="platform" type="string">LinuxIFC </i>
  <i name="date" type="string">2022 12 22 </i>
  <i name="time" type="string">18:47:16 </i>
 </generator>
 <incar>
  <i type="string" name="SYSTEM"> Crystal</i>
  <i type="int" name="ISTART">     0</i>
  <i type="string" name="PREC">normal</i>
  <i type="string" name="ALGO"> fast</i>
  <i type="int" name="NSIM">     4</i>
  <i type="int" name="ISPIN">     2</i>
  <i type="int" name="ICHARG">     2</i>
  <i type="int" name="NELMDL">   -10</i>
  <i type="int" name="NELMIN">     4</i>
  <i type="int" name="IBRION">     2</i>
  <i name="EDIFF">      0.00010000</i>
  <i name="EDIFFG">     -0.01000000</i>
  <i type="int" name="NSW">   300</i>
  <i type="int" name="ISIF">     3</i>
  <i name="ENCUT">    350.00000000</i>
  <i type="logical" name="LREAL"> F  </i>
  <i type="int" name="ISMEAR">     2</i>
  <i name="SIGMA">      0.10000000</i>
  <i type="logical" name="LWAVE"> F  </i>
  <i type="logical" name="LCHARG"> F  </i>
 </incar>
 <kpoints>
  <generation param="Gamma">
   <v type="int" name="divisions">       5        5        5 </v>
   <v name="usershift">      0.00000000       0.00000000       0.00000000 </v>
   <v name="genvec1">      0.20000000       0.00000000       0.00000000 </v>
   <v name="genvec2">      0.00000000       0.20000000       0.00000000 </v>
   <v name="genvec3">      0.00000000       0.00000000       0.20000000 </v>
   <v name="shift">      0.00000000       0.00000000       0.00000000 </v>
  </generation>
  <varray name="kpointlist" >
   <v>       0.00000000       0.00000000       0.00000000 </v>
   <v>       0.20000000       0.00000000       0.00000000 </v>
   <v>       0.40000000       0.00000000       0.00000000 </v>
   <v>       0.20000000       0.20000000       0.00000000 </v>
   <v>       0.40000000       0.20000000       0.00000000 </v>
   <v>       0.40000000       0.40000000       0.00000000 </v>
   <v>       0.20000000       0.20000000       0.20000000 </v>
   <v>       0.40000000       0.20000000       0.20000000 </v>
   <v>       0.40000000       0.40000000       0.20000000 </v>
   <v>       0.40000000       0.40000000       0.40000000 </v>
  </varray>
  <varray name="weights" >
   <v>       0.00800000 </v>
   <v>       0.04800000 </v>
   <v>       0.04800000 </v>
   <v>       0.09600000 </v>
   <v>       0.19200000 </v>
   <v>       0.09600000 </v>
   <v>       0.06400000 </v>
   <v>       0.19200000 </v>
   <v>       0.19200000 </v>
   <v>       0.06400000 </v>
  </varray>
 </kpoints>
 <parameters>
  <separator name="general" >
   <i type="string" name="SYSTEM">Crystal</i>
   <i type="logical" name="LCOMPAT"> F  </i>
  </separator>
  <separator name="electronic" >
   <i type="string" name="PREC">normal</i>
   <i name="ENMAX">    350.00000000</i>
   <i name="ENAUG">    331.63800000</i>
   <i name="EDIFF">      0.00010000</i>
   <i type="int" name="IALGO">    68</i>
   <i type="int" name="IWAVPR">    11</i>
   <i type="int" name="NBANDS">     8</i>
   <i name="NELECT">      4.00000000</i>
   <i type="int" name="TURBO">     0</i>
   <i type="int" name="IRESTART">     0</i>
   <i type="int" name="NREBOOT">     0</i>
   <i type="int" name="NMIN">     0</i>
   <i name="EREF">      0.00000000</i>
   <separator name="electronic smearing" >
    <i type="int" name="ISMEAR">     2</i>
    <i name="SIGMA">      0.10000000</i>
    <i name="KSPACING">      0.50000000</i>
    <i type="logical" name="KGAMMA"> T  </i>
   </separator>
   <separator name="electronic projectors" >
    <i type="logical" name="LREAL"> F  </i>
    <v name="ROPT">      0.00000000</v>
    <i type="int" name="LMAXPAW">  -100</i>
    <i type="int" name="LMAXMIX">     2</i>
    <i type="logical" name="NLSPLINE"> F  </i>
   </separator>
   <separator name="electronic startup" >
    <i type="int" name="ISTART">     0</i>
    <i type="int" name="ICHARG">     2</i>
    <i type="int" name="INIWAV">     1</i>
   </separator>
   <separator name="electronic spin" >
    <i type="int" name="ISPIN">     2</i>
    <i type="logical" name="LNONCOLLINEAR"> F  </i>
    <v name="MAGMOM">      1.00000000      1.00000000      1.00000000      1.00000000</v>
    <i name="NUPDOWN">     -1.00000000</i>
    <i type="logical" name="LSORBIT"> F  </i>
    <v name="SAXIS">      0.00000000      0.00000000      1.00000000</v>
    <i type="logical" name="LSPIRAL"> F  </i>
    <v name="QSPIRAL">      0.00000000      0.00000000      0.00000000</v>
    <i type="logical" name="LZEROZ"> F  </i>
   </separator>
   <separator name="electronic exchange-correlation" >
    <i type="logical" name="LASPH"> F  </i>
    <i type="logical" name="LMETAGGA"> F  </i>
   </separator>
   <separator name="electronic convergence" >
    <i type="int" name="NELM">    60</i>
    <i type="int" name="NELMDL">   -10</i>
    <i type="int" name="NELMIN">     4</i>
    <i name="ENINI">    350.00000000</i>
    <separator name="electronic convergence detail" >
     <i type="logical" name="LDIAG"> T  </i>
     <i type="logical" name="LSUBROT"> T  </i>
     <i name="WEIMIN">      0.00100000</i>
     <i name="EBREAK">      0.00000313</i>
     <i name="DEPER">      0.30000000</i>
     <i type="int" name="NRMM">     4</i>
     <i name="TIME">      0.40000000</i>
    </separator>
   </separator>
   <separator name="electronic mixer" >
    <i name="AMIX">      0.40000000</i>
    <i name="BMIX">      1.00000000</i>
    <i name="AMIN">      0.10000000</i>
    <i name="AMIX_MAG">      1.60000000</i>
    <i name="BMIX_MAG">      1.00000000</i>
    <separator name="electronic mixer details" >
     <i type="int" name="IMIX">     4</i>
     <i type="int" name="MAXMIX">   -45</i>
     <i name="WC">    100.00000000</i>
     <i type="int" name="INIMIX">     1</i>
     <i type="int" name="MIXPRE">     1</i>
     <i type="int" name="MREMOVE">     5</i>
    </separator>
   </separator>
   <separator name="electronic dipolcorrection" >
    <i type="logical" name="LDIPOL"> F  </i>
    <i type="logical" name="LMONO"> F  </i>
    <i type="int" name="IDIPOL">     0</i>
    <i name="EPSILON">      1.00000000</i>
    <v name="DIPOL">   -100.00000000   -100.00000000   -100.00000000</v>
    <i name="EFIELD">      0.00000000</i>
   </separator>
  </separator>
  <separator name="grids" >
   <i type="int" name="NGX">    20</i>
   <i type="int" name="NGY">    20</i>
   <i type="int" name="NGZ">    20</i>
   <i type="int" name="NGXF">    40</i>
   <i type="int" name="NGYF">    40</i>
   <i type="int" name="NGZF">    40</i>
   <i type="logical" name="ADDGRID"> F  </i>
  </separator>
  <separator name="ionic" >
   <i type="int" name="NSW">   300</i>
   <i type="int" name="IBRION">     2</i>
   <i type="int" name="ISIF">     3</i>
   <i name="PSTRESS">      0.00000000</i>
   <i name="EDIFFG">     -0.01000000</i>
   <i type="int" name="NFREE">     1</i>
   <i name="POTIM">      0.50000000</i>
   <i name="SMASS">     -3.00000000</i>
   <i name="SCALEE">      1.00000000</i>
  </separator>
  <separator name="ionic md" >
   <i name="TEBEG">      0.00010000</i>
   <i name="TEEND">      0.00010000</i>
   <i type="int" name="NBLOCK">     1</i>
   <i type="int" name="KBLOCK">   300</i>
   <i type="int" name="NPACO">   256</i>
   <i name="APACO">     16.00000000</i>
  </separator>
  <separator name="symmetry" >
   <i type="int" name="ISYM">     2</i>
   <i name="SYMPREC">      0.00001000</i>
  </separator>
  <separator name="dos" >
   <i type="logical" name="LORBIT"> F  </i>
   <v name="RWIGS">     -1.00000000</v>
   <i type="int" name="NEDOS">   301</i>
   <i name="EMIN">     10.00000000</i>
   <i name="EMAX">    -10.00000000</i>
   <i name="EFERMI">      0.00000000</i>
  </separator>
  <separator name="writing" >
   <i type="int" name="NWRITE">     2</i>
   <i type="logical" name="LWAVE"> F  </i>
   <i type="logical" name="LCHARG"> F  </i>
   <i type="logical" name="LPARD"> F  </i>
   <i type="logical" name="LVTOT"> F  </i>
   <i type="logical" name="LVHAR"> F  </i>
   <i type="logical" name="LELF"> F  </i>
   <i type="logical" name="LOPTICS"> F  </i>
   <v name="STM">      0.00000000      0.00000000      0.00000000      0.00000000      0.00000000      0.00000000      0.00000000</v>
  </separator>
  <separator name="performance" >
   <i type="int" name="NPAR">     1</i>
   <i type="int" name="NSIM">     4</i>
   <i type="int" name="NBLK">    -1</i>
   <i type="logical" name="LPLANE"> T  </i>
   <i type="logical" name="LSCALAPACK"> F  </i>
   <i type="logical" name="LSCAAWARE"> F  </i>
   <i type="logical" name="LSCALU"> F  </i>
   <i type="logical" name="LASYNC"> F  </i>
   <i type="logical" name="LORBITALREAL"> F  </i>
  </separator>
  <separator name="miscellaneous" >
   <i type="int" name="IDIOT">     3</i>
   <i type="logical" name="LMUSIC"> F  </i>
   <v name="POMASS">      7.01000000</v>
   <v name="DARWINR">      0.00000000</v>
   <v name="DARWINV">      1.00000000</v>
   <i type="logical" name="LCORR"> T  </i>
  </separator>
  <i type="logical" name="GGA_COMPAT"> T  </i>
  <i type="logical" name="LBERRY"> F  </i>
  <i type="int" name="ICORELEVEL">     0</i>
  <i type="logical" name="LDAU"> F  </i>
  <i type="int" name="I_CONSTRAINED_M">     0</i>
  <separator name="electronic exchange-correlation" >
   <i type="string" name="GGA">--</i>
   <i type="int" name="VOSKOWN">     0</i>
   <i type="logical" name="LHFCALC"> F  </i>
   <i type="string" name="PRECFOCK"></i>
   <i type="logical" name="LSYMGRAD"> F  </i>
   <i type="logical" name="LHFONE"> F  </i>
   <i type="logical" name="LRHFCALC"> F  </i>
   <i type="logical" name="LTHOMAS"> F  </i>
   <i type="logical" name="LMODELHF"> F  </i>
   <i name="ENCUT4O">     -1.00000000</i>
   <i type="int" name="EXXOEP">     0</i>
   <i type="int" name="FOURORBIT">     0</i>
   <i name="AEXX">      0.00000000</i>
   <i name="HFALPHA">      0.00000000</i>
   <i name="MCALPHA">      0.00000000</i>
   <i name="ALDAX">      1.00000000</i>
   <i name="AGGAX">      1.00000000</i>
   <i name="ALDAC">      1.00000000</i>
   <i name="AGGAC">      1.00000000</i>
   <i type="int" name="NKREDX">     1</i>
   <i type="int" name="NKREDY">     1</i>
   <i type="int" name="NKREDZ">     1</i>
   <i type="logical" name="SHIFTRED"> F  </i>
   <i type="logical" name="ODDONLY"> F  </i>
   <i type="logical" name="EVENONLY"> F  </i>
   <i type="int" name="LMAXFOCK">     0</i>
   <i type="int" name="NMAXFOCKAE">     0</i>
   <i type="logical" name="LFOCKAEDFT"> F  </i>
   <i name="HFSCREEN">      0.00000000</i>
   <i name="HFSCREENC">      0.00000000</i>
   <i type="int" name="NBANDSGWLOW">     0</i>
  </separator>
  <separator name="vdW DFT" >
   <i type="logical" name="LUSE_VDW"> F  </i>
   <i name="Zab_VDW">     -0.84910000</i>
   <i name="PARAM1">      0.12340000</i>
   <i name="PARAM2">      1.00000000</i>
   <i name="PARAM3">      0.00000000</i>
  </separator>
  <separator name="model GW" >
   <i type="int" name="MODEL_GW">     0</i>
   <i name="MODEL_EPS0">     12.09231143</i>
   <i name="MODEL_ALPHA">      1.00000000</i>
  </separator>
  <separator name="linear response parameters" >
   <i type="logical" name="LEPSILON"> F  </i>
   <i type="logical" name="LRPA"> F  </i>
   <i type="logical" name="LNABLA"> F  </i>
   <i type="logical" name="LVEL"> F  </i>
   <i type="int" name="KINTER">     0</i>
   <i name="CSHIFT">      0.10000000</i>
   <i name="OMEGAMAX">     -1.00000000</i>
   <i name="DEG_THRESHOLD">      0.00200000</i>
  </separator>
  <separator name="orbital magnetization" >
   <i type="logical" name="NUCIND"> F  </i>
   <v name="MAGPOS">      0.00000000      0.00000000      0.00000000</v>
   <i type="logical" name="LNICSALL"> T  </i>
   <i type="logical" name="ORBITALMAG"> F  </i>
   <i type="logical" name="LMAGBLOCH"> F  </i>
   <i type="logical" name="LCHIMAG"> F  </i>
   <i type="logical" name="LGAUGE"> T  </i>
   <i type="int" name="MAGATOM">     0</i>
   <v name="MAGDIPOL">      0.00000000      0.00000000      0.00000000</v>
   <v name="AVECCONST">      0.00000000      0.00000000      0.00000000</v>
  </separator>
  <separator name="response functions" >
   <i type="logical" name="LADDER"> F  </i>
   <i type="logical" name="LFXC"> F  </i>
   <i type="logical" name="LHARTREE"> T  </i>
   <i type="int" name="IBSE">     0</i>
   <i type="logical" name="LTCTE"> F  </i>
   <i type="logical" name="LTETE"> F  </i>
   <i type="logical" name="LTRIPLET"> F  </i>
   <i type="logical" name="LFXCEPS"> F  </i>
   <i type="logical" name="L2ORDER"> F  </i>
   <i type="logical" name="LUSEW"> F  </i>
   <i name="ENCUTGW">     -2.00000000</i>
   <i name="ENCUTGWSOFT">     -2.00000000</i>
   <i name="ENCUTLF">     -1.00000000</i>
   <i type="int" name="LMAXMP2">    -1</i>
   <i name="SCISSOR">      0.00000000</i>
   <i type="int" name="NOMEGA">     0</i>
   <i type="int" name="NOMEGAR">     0</i>
   <i type="int" name="NBANDSGW">    -1</i>
   <i type="int" name="NBANDSO">    -1</i>
   <i type="int" name="NBANDSV">    -1</i>
   <i type="int" name="NELM">     1</i>
   <i type="int" name="DIM">     3</i>
   <i type="int" name="ANTIRES">     0</i>
   <i name="OMEGAMAX">    -30.00000000</i>
   <i name="OMEGATL">   -200.00000000</i>
   <i type="int" name="OMEGAGRID">     0</i>
   <i name="CSHIFT">     -0.10000000</i>
   <i type="logical" name="SELFENERGY"> F  </i>
   <i type="logical" name="LSPECTRAL"> F  </i>
   <i type="logical" name="ODDONLYGW"> F  </i>
   <i type="logical" name="EVENONLYGW"> F  </i>
   <i type="int" name="NKREDLFX">     1</i>
   <i type="int" name="NKREDLFY">     1</i>
   <i type="int" name="NKREDLFZ">     1</i>
   <i type="int" name="MAXMEM">  1800</i>
   <i type="int" name="TELESCOPE">     0</i>
  </separator>
 </parameters>
 <atominfo>
  <atoms>       4 </atoms>
  <types>       1 </types>
  <array name="atoms" >
   <dimension dim="1">ion</dimension>
   <field type="string">element</field>
   <field type="int">atomtype</field>
   <set>
    <rc><c>Li</c><c>   1</c></rc>
    <rc><c>Li</c><c>   1</c></rc>
    <rc><c>Li</c><c>   1</c></rc>
    <rc><c>Li</c><c>   1</c></rc>
   </set>
  </array>
  <array name="atomtypes" >
   <dimension dim="1">type</dimension>
   <field type="int">atomspertype</field>
   <field type="string">element</field>
   <field>mass</field>
   <field>valence</field>
   <field type="string">pseudopotential</field>
   <set>
    <rc><c>   4</c><c>Li</c><c>      7.01000000</c><c>      1.00000000</c><c>  PAW_PBE Li 17Jan2003                  </c></rc>
   </set>
  </array>
 </atominfo>
 <structure name="initialpos" >
  <crystal>
   <varray name="basis" >
    <v>       4.31989000       0.00000000       0.00000000 </v>
    <v>       0.00000000       4.31989000       0.00000000 </v>
    <v>       0.00000000       0.00000000       4.31989000 </v>
   </varray>
   <i name="volume">     80.61540956 </i>
   <varray name="rec_basis" >
    <v>       0.23148738      -0.00000000       0.00000000 </v>
    <v>       0.00000000       0.23148738       0.00000000 </v>
    <v>      -0.00000000      -0.00000000       0.23148738 </v>
   </varray>
  </crystal>
  <varray name="positions" >
   <v>       0.00000000       0.00000000       0.00000000 </v>
   <v>       0.00000000       0.50000000       0.50000000 </v>
   <v>       0.50000000       0.00000000       0.50000000 </v>
   <v>       0.50000000       0.50000000       0.00000000 </v>
  </varray>
 </structure>
 <calculation>
  <scstep>
   <time name="dav">    0.26    0.28</time>
   <time name="total">    0.40    0.41</time>
   <energy>
    <i name="alphaZ">      0.51993978 </i>
    <i name="ewald">    -30.56607402 </i>
    <i name="hartreedc">     -0.01823458 </i>
    <i name="XCdc">    -15.85737038 </i>
    <i name="pawpsdc">     30.11914309 </i>
    <i name="pawaedc">     -7.88618898 </i>
    <i name="eentropy">     -0.00003913 </i>
    <i name="bandstr">     -2.64409130 </i>
    <i name="atom">     21.20034096 </i>
    <i name="e_fr_energy">     -5.13257457 </i>
    <i name="e_wo_entrp">     -5.13253544 </i>
    <i name="e_0_energy">     -5.13256479 </i>
   </energy>
  </scstep>
  <scstep>
   <time name="dav">    0.36    0.36</time>
   <time name="total">    0.36    0.36</time>
   <energy>
    <i name="e_fr_energy">     -6.79780283 </i>
    <i name="e_wo_entrp">     -6.79317860 </i>
    <i name="e_0_energy">     -6.79664677 </i>
   </energy>
  </scstep>
  <scstep>
   <time name="dav">    0.27    0.27</time>
   <time name="total">    0.27    0.27</time>
   <energy>
    <i name="e_fr_energy">     -6.81677951 </i>
    <i name="e_wo_entrp">     -6.81278706 </i>
    <i name="e_0_energy">     -6.81578140 </i>
   </energy>
  </scstep>
  <scstep>
   <time name="dav">    0.34    0.35</time>
   <time name="total">    0.35    0.35</time>
   <energy>
    <i name="e_fr_energy">     -6.81683979 </i>
    <i name="e_wo_entrp">     -6.81284886 </i>
    <i name="e_0_energy">     -6.81584205 </i>
   </energy>
  </scstep>
  <scstep>
   <time name="dav">    0.30    0.30</time>
   <time name="total">    0.30    0.30</time>
   <energy>
    <i name="e_fr_energy">     -6.81684008 </i>
    <i name="e_wo_entrp">     -6.81284918 </i>
    <i name="e_0_energy">     -6.81584235 </i>
   </energy>
  </scstep>
  <scstep>
   <time name="dav">    0.30    0.30</time>
   <time name="total">    0.30    0.31</time>
   <energy>
    <i name="e_fr_energy">     -6.81684008 </i>
    <i name="e_wo_entrp">     -6.81284919 </i>
    <i name="e_0_energy">     -6.81584236 </i>
   </energy>
  </scstep>
  <scstep>
   <time name="dav">    0.26    0.26</time>
   <time name="total">    0.26    0.26</time>
   <energy>
    <i name="e_fr_energy">     -6.81684008 </i>
    <i name="e_wo_entrp">     -6.81284919 </i>
    <i name="e_0_energy">     -6.81584236 </i>
   </energy>
  </scstep>
  <scstep>
   <time name="dav">    0.27    0.27</time>
   <time name="total">    0.27    0.27</time>
   <energy>
    <i name="e_fr_energy">     -6.81684008 </i>
    <i name="e_wo_entrp">     -6.81284919 </i>
    <i name="e_0_energy">     -6.81584236 </i>
   </energy>
  </scstep>
  <scstep>
   <time name="dav">    0.24    0.25</time>
   <time name="total">    0.25    0.25</time>
   <energy>
    <i name="e_fr_energy">     -6.81684008 </i>
    <i name="e_wo_entrp">     -6.81284919 </i>
    <i name="e_0_energy">     -6.81584236 </i>
   </energy>
  </scstep>
  <scstep>
   <time name="dav">    0.24    0.24</time>
   <time name="total">    0.28    0.28</time>
   <energy>
    <i name="e_fr_energy">     -6.81684008 </i>
    <i name="e_wo_entrp">     -6.81284919 </i>
    <i name="e_0_energy">     -6.81584236 </i>
   </energy>
  </scstep>
  <scstep>
   <time name="diag">    0.05    0.05</time>
   <time name="diis">    0.21    0.21</time>
   <time name="orth">    0.00    0.00</time>
   <time name="total">    0.44    0.44</time>
   <energy>
    <i name="e_fr_energy">     -7.46124896 </i>
    <i name="e_wo_entrp">     -7.45885845 </i>
    <i name="e_0_energy">     -7.46065133 </i>
   </energy>
  </scstep>
  <scstep>
   <time name="diag">    0.05    0.05</time>
   <time name="diis">    0.21    0.21</time>
   <time name="orth">    0.00    0.00</time>
   <time name="total">    0.43    0.43</time>
   <energy>
    <i name="e_fr_energy">     -7.63558420 </i>
    <i name="e_wo_entrp">     -7.63680716 </i>
    <i name="e_0_energy">     -7.63588994 </i>
   </energy>
  </scstep>
  <scstep>
   <time name="diag">    0.05    0.05</time>
   <time name="diis">    0.21    0.21</time>
   <time name="orth">    0.00    0.00</time>
   <time name="total">    0.43    0.43</time>
   <energy>
    <i name="e_fr_energy">     -7.63859430 </i>
    <i name="e_wo_entrp">     -7.63961529 </i>
    <i name="e_0_energy">     -7.63884955 </i>
   </energy>
  </scstep>
  <scstep>
   <time name="diag">    0.06    0.05</time>
   <time name="diis">    0.21    0.21</time>
   <time name="orth">    0.00    0.00</time>
   <time name="total">    0.40    0.40</time>
   <energy>
    <i name="alphaZ">      0.51993978 </i>
    <i name="ewald">    -30.56607402 </i>
    <i name="hartreedc">     -0.04966229 </i>
    <i name="XCdc">    -16.99653635 </i>
    <i name="pawpsdc">     37.28576047 </i>
    <i name="pawaedc">    -15.08325042 </i>
    <i name="eentropy">      0.00074606 </i>
    <i name="bandstr">     -3.94984953 </i>
    <i name="atom">     21.20034096 </i>
    <i name="e_fr_energy">     -7.63858534 </i>
    <i name="e_wo_entrp">     -7.63933140 </i>
    <i name="e_0_energy">     -7.63877185 </i>
   </energy>
  </scstep>
  <structure>
   <crystal>
    <varray name="basis" >
     <v>       4.31989000       0.00000000       0.00000000 </v>
     <v>       0.00000000       4.31989000       0.00000000 </v>
     <v>       0.00000000       0.00000000       4.31989000 </v>
    </varray>
    <i name="volume">     80.61540956 </i>
    <varray name="rec_basis" >
     <v>       0.23148738      -0.00000000       0.00000000 </v>
     <v>       0.00000000       0.23148738       0.00000000 </v>
     <v>      -0.00000000      -0.00000000       0.23148738 </v>
    </varray>
   </crystal>
   <varray name="positions" >
    <v>       0.00000000       0.00000000       0.00000000 </v>
    <v>       0.00000000       0.50000000       0.50000000 </v>
    <v>       0.50000000       0.00000000       0.50000000 </v>
    <v>       0.50000000       0.50000000       0.00000000 </v>
   </varray>
  </structure>
  <varray name="forces" >
   <v>       0.00000000      -0.00000000       0.00000000 </v>
   <v>      -0.00000000      -0.00000000       0.00000000 </v>
   <v>      -0.00000000       0.00000000      -0.00000000 </v>
   <v>       0.00000000       0.00000000      -0.00000000 </v>
  </varray>
  <varray name="stress" >
   <v>       1.20339277       0.00000000      -0.00000000 </v>
   <v>       0.00000000       1.20339277       0.00000000 </v>
   <v>       0.00000000       0.00000000       1.20339277 </v>
  </varray>
  <energy>
   <i name="e_fr_energy">     -7.63858534 </i>
   <i name="e_wo_entrp">     -7.63877185 </i>
   <i name="e_0_energy">      0.00074606 </i>
  </energy>
  <time name="totalsc">    5.36    5.39</time>
 </calculation>
 <calculation>
  <scstep>
   <time name="dav">    0.29    0.29</time>
   <time name="total">    0.45    0.45</time>
   <energy>
    <i name="alphaZ">      0.51880235 </i>
    <i name="ewald">    -30.54376869 </i>
    <i name="hartreedc">     -0.05212608 </i>
    <i name="XCdc">    -16.99378339 </i>
    <i name="pawpsdc">     37.51683249 </i>
    <i name="pawaedc">    -15.31538378 </i>
    <i name="eentropy">      0.00075043 </i>
    <i name="bandstr">     -3.97054637 </i>
    <i name="atom">     21.20034096 </i>
    <i name="e_fr_energy">     -7.63888209 </i>
    <i name="e_wo_entrp">     -7.63963252 </i>
    <i name="e_0_energy">     -7.63906970 </i>
   </energy>
  </scstep>
  <scstep>
   <time name="diag">    0.06    0.05</time>
   <time name="diis">    0.12    0.13</time>
   <time name="orth">    0.00    0.00</time>
   <time name="total">    0.34    0.34</time>
   <energy>
    <i name="e_fr_energy">     -7.63889460 </i>
    <i name="e_wo_entrp">     -7.63964330 </i>
    <i name="e_0_energy">     -7.63908177 </i>
   </energy>
  </scstep>
  <scstep>
   <time name="diag">    0.05    0.05</time>
   <time name="diis">    0.12    0.12</time>
   <time name="orth">    0.00    0.00</time>
   <time name="total">    0.34    0.34</time>
   <energy>
    <i name="e_fr_energy">     -7.63889513 </i>
    <i name="e_wo_entrp">     -7.63964340 </i>
    <i name="e_0_energy">     -7.63908220 </i>
   </energy>
  </scstep>
  <scstep>
   <time name="diag">    0.05    0.05</time>
   <time name="diis">    0.08    0.08</time>
   <time name="orth">    0.00    0.00</time>
   <time name="total">    0.27    0.27</time>
   <energy>
    <i name="alphaZ">      0.51880235 </i>
    <i name="ewald">    -30.54376869 </i>
    <i name="hartreedc">     -0.05208597 </i>
    <i name="XCdc">    -16.99381847 </i>
    <i name="pawpsdc">     37.33455690 </i>
    <i name="pawaedc">    -15.13226891 </i>
    <i name="eentropy">      0.00074737 </i>
    <i name="bandstr">     -3.97139978 </i>
    <i name="atom">     21.20034096 </i>
    <i name="e_fr_energy">     -7.63889425 </i>
    <i name="e_wo_entrp">     -7.63964162 </i>
    <i name="e_0_energy">     -7.63908109 </i>
   </energy>
  </scstep>
  <structure>
   <crystal>
    <varray name="basis" >
     <v>       4.32304471       0.00000000       0.00000000 </v>
     <v>       0.00000000       4.32304471       0.00000000 </v>
     <v>       0.00000000       0.00000000       4.32304471 </v>
    </varray>
    <i name="volume">     80.79215268 </i>
    <varray name="rec_basis" >
     <v>       0.23131845      -0.00000000      -0.00000000 </v>
     <v>      -0.00000000       0.23131845       0.00000000 </v>
     <v>      -0.00000000      -0.00000000       0.23131845 </v>
    </varray>
   </crystal>
   <varray name="positions" >
    <v>       0.00000000      -0.00000000       0.00000000 </v>
    <v>      -0.00000000       0.50000000       0.50000000 </v>
    <v>       0.50000000       0.00000000       0.50000000 </v>
    <v>       0.50000000       0.50000000      -0.00000000 </v>
   </varray>
  </structure>
  <varray name="forces" >
   <v>       0.00000000       0.00000000      -0.00000000 </v>
   <v>       0.00000000       0.00000000       0.00000000 </v>
   <v>      -0.00000000      -0.00000000      -0.00000000 </v>
   <v>      -0.00000000      -0.00000000      -0.00000000 </v>
  </varray>
  <varray name="stress" >
   <v>       0.92947080      -0.00000000       0.00000000 </v>
   <v>       0.00000000       0.92947080       0.00000000 </v>
   <v>      -0.00000000       0.00000000       0.92947080 </v>
  </varray>
  <energy>
   <i name="e_fr_energy">     -7.63889425 </i>
   <i name="e_wo_entrp">     -7.63908109 </i>
   <i name="e_0_energy">      0.00074737 </i>
  </energy>
  <time name="totalsc">    2.02    2.02</time>
 </calculation>
 <calculation>
  <scstep>
   <time name="dav">    0.26    0.26</time>
   <time name="total">    0.42    0.42</time>
   <energy>
    <i name="alphaZ">      0.51540989 </i>
    <i name="ewald">    -30.47704759 </i>
    <i name="hartreedc">     -0.05195841 </i>
    <i name="XCdc">    -17.00281798 </i>
    <i name="pawpsdc">     37.29334787 </i>
    <i name="pawaedc">    -15.09086301 </i>
    <i name="eentropy">      0.00075103 </i>
    <i name="bandstr">     -4.02621314 </i>
    <i name="atom">     21.20034096 </i>
    <i name="e_fr_energy">     -7.63905038 </i>
    <i name="e_wo_entrp">     -7.63980141 </i>
    <i name="e_0_energy">     -7.63923814 </i>
   </energy>
  </scstep>
  <scstep>
   <time name="diag">    0.05    0.05</time>
   <time name="diis">    0.11    0.11</time>
   <time name="orth">    0.00    0.00</time>
   <time name="total">    0.32    0.32</time>
   <energy>
    <i name="e_fr_energy">     -7.63904922 </i>
    <i name="e_wo_entrp">     -7.63980020 </i>
    <i name="e_0_energy">     -7.63923697 </i>
   </energy>
  </scstep>
  <scstep>
   <time name="diag">    0.06    0.05</time>
   <time name="diis">    0.20    0.21</time>
   <time name="orth">    0.00    0.00</time>
   <time name="total">    0.42    0.42</time>
   <energy>
    <i name="e_fr_energy">     -7.63904778 </i>
    <i name="e_wo_entrp">     -7.63979866 </i>
    <i name="e_0_energy">     -7.63923550 </i>
   </energy>
  </scstep>
  <scstep>
   <time name="diag">    0.05    0.05</time>
   <time name="diis">    0.21    0.21</time>
   <time name="orth">    0.00    0.00</time>
   <time name="total">    0.40    0.39</time>
   <energy>
    <i name="alphaZ">      0.51540989 </i>
    <i name="ewald">    -30.47704759 </i>
    <i name="hartreedc">     -0.05151546 </i>
    <i name="XCdc">    -17.00353220 </i>
    <i name="pawpsdc">     37.09411016 </i>
    <i name="pawaedc">    -14.89092032 </i>
    <i name="eentropy">      0.00075087 </i>
    <i name="bandstr">     -4.02664414 </i>
    <i name="atom">     21.20034096 </i>
    <i name="e_fr_energy">     -7.63904783 </i>
    <i name="e_wo_entrp">     -7.63979870 </i>
    <i name="e_0_energy">     -7.63923555 </i>
   </energy>
  </scstep>
  <structure>
   <crystal>
    <varray name="basis" >
     <v>       4.33250882       0.00000000       0.00000000 </v>
     <v>       0.00000000       4.33250882       0.00000000 </v>
     <v>       0.00000000       0.00000000       4.33250882 </v>
    </varray>
    <i name="volume">     81.32393165 </i>
    <varray name="rec_basis" >
     <v>       0.23081315      -0.00000000      -0.00000000 </v>
     <v>      -0.00000000       0.23081315       0.00000000 </v>
     <v>      -0.00000000      -0.00000000       0.23081315 </v>
    </varray>
   </crystal>
   <varray name="positions" >
    <v>       0.00000000      -0.00000000       0.00000000 </v>
    <v>      -0.00000000       0.50000000       0.50000000 </v>
    <v>       0.50000000       0.00000000       0.50000000 </v>
    <v>       0.50000000       0.50000000      -0.00000000 </v>
   </varray>
  </structure>
  <varray name="forces" >
   <v>      -0.00000000      -0.00000000      -0.00000000 </v>
   <v>       0.00000000       0.00000000      -0.00000000 </v>
   <v>      -0.00000000      -0.00000000       0.00000000 </v>
   <v>       0.00000000      -0.00000000       0.00000000 </v>
  </varray>
  <varray name="stress" >
   <v>       0.00157012      -0.00000000       0.00000000 </v>
   <v>       0.00000000       0.00157012       0.00000000 </v>
   <v>       0.00000000       0.00000000       0.00157012 </v>
  </varray>
  <energy>
   <i name="e_fr_energy">     -7.63904783 </i>
   <i name="e_wo_entrp">     -7.63923555 </i>
   <i name="e_0_energy">      0.00075087 </i>
  </energy>
  <time name="totalsc">    2.14    2.14</time>
  <eigenvalues>
   <array>
    <dimension dim="1">band</dimension>
    <dimension dim="2">kpoint</dimension>
    <dimension dim="3">spin</dimension>
    <field>eigene</field>
    <field>occ</field>
    <set>
     <set comment="spin 1">
      <set comment="kpoint 1">
       <r>   -3.1803    1.0000 </r>
       <r>    1.9232    0.0000 </r>
       <r>    1.9232    0.0000 </r>
       <r>    1.9232    0.0000 </r>
       <r>    5.0781    0.0000 </r>
       <r>    5.0781    0.0000 </r>
       <r>    5.0781    0.0000 </r>
       <r>    8.8179    0.0000 </r>
      </set>
      <set comment="kpoint 2">
       <r>   -2.9402    1.0000 </r>
       <r>    0.6445    0.0000 </r>
       <r>    2.2376    0.0000 </r>
       <r>    2.2376    0.0000 </r>
       <r>    4.9662    0.0000 </r>
       <r>    4.9662    0.0000 </r>
       <r>    6.8724    0.0000 </r>
       <r>    6.8724    0.0000 </r>
      </set>
      <set comment="kpoint 3">
       <r>   -2.2150    1.0000 </r>
       <r>   -1.0007    1.0000 </r>
       <r>    3.1789    0.0000 </r>
       <r>    3.1789    0.0000 </r>
       <r>    4.7384    0.0000 </r>
       <r>    4.7384    0.0000 </r>
       <r>    4.8003    0.0000 </r>
       <r>    4.8003    0.0000 </r>
      </set>
      <set comment="kpoint 4">
       <r>   -2.7004    1.0000 </r>
       <r>    0.8960    0.0000 </r>
       <r>    0.8960    0.0000 </r>
       <r>    2.5518    0.0000 </r>
       <r>    4.1660    0.0000 </r>
       <r>    6.7518    0.0000 </r>
       <r>    6.8072    0.0000 </r>
       <r>    6.8072    0.0000 </r>
      </set>
      <set comment="kpoint 5">
       <r>   -1.9764    1.0000 </r>
       <r>   -0.7620    1.0000 </r>
       <r>    1.6339    0.0000 </r>
       <r>    2.7930    0.0000 </r>
       <r>    3.4926    0.0000 </r>
       <r>    5.0512    0.0000 </r>
       <r>    6.5882    0.0000 </r>
       <r>    6.5926    0.0000 </r>
      </set>
      <set comment="kpoint 6">
       <r>   -1.2558    1.0000 </r>
       <r>   -0.0452    0.9959 </r>
       <r>   -0.0452    0.9959 </r>
       <r>    1.1477    0.0000 </r>
       <r>    4.4320    0.0000 </r>
       <r>    5.9871    0.0000 </r>
       <r>    5.9871    0.0000 </r>
       <r>    7.5346    0.0000 </r>
      </set>
      <set comment="kpoint 7">
       <r>   -2.4622    1.0000 </r>
       <r>    1.1161    0.0000 </r>
       <r>    1.1161    0.0000 </r>
       <r>    1.1161    0.0000 </r>
       <r>    5.2945    0.0000 </r>
       <r>    5.2945    0.0000 </r>
       <r>    5.2945    0.0000 </r>
       <r>    7.9417    0.0000 </r>
      </set>
      <set comment="kpoint 8">
       <r>   -1.7431    1.0000 </r>
       <r>   -0.5375    1.0000 </r>
       <r>    1.6438    0.0000 </r>
       <r>    1.6438    0.0000 </r>
       <r>    3.9039    0.0000 </r>
       <r>    3.9039    0.0000 </r>
       <r>    6.4813    0.0000 </r>
       <r>    7.9629    0.0000 </r>
      </set>
      <set comment="kpoint 9">
       <r>   -1.0422    1.0000 </r>
       <r>    0.1172    0.9816 </r>
       <r>    0.1172    0.9816 </r>
       <r>    1.0706    0.0000 </r>
       <r>    3.6763    0.0000 </r>
       <r>    4.7677    0.0000 </r>
       <r>    4.7677    0.0000 </r>
       <r>    6.1365    0.0000 </r>
      </set>
      <set comment="kpoint 10">
       <r>   -0.4237    1.0000 </r>
       <r>    0.4614    0.0006 </r>
       <r>    0.4614    0.0006 </r>
       <r>    0.4614    0.0006 </r>
       <r>    3.5329    0.0000 </r>
       <r>    3.5329    0.0000 </r>
       <r>    3.5329    0.0000 </r>
       <r>    4.5226    0.0000 </r>
      </set>
     </set>
     <set comment="spin 2">
      <set comment="kpoint 1">
       <r>   -3.1800    1.0000 </r>
       <r>    1.9234    0.0000 </r>
       <r>    1.9234    0.0000 </r>
       <r>    1.9234    0.0000 </r>
       <r>    5.0785    0.0000 </r>
       <r>    5.0785    0.0000 </r>
       <r>    5.0785    0.0000 </r>
       <r>    8.8181    0.0000 </r>
      </set>
      <set comment="kpoint 2">
       <r>   -2.9399    1.0000 </r>
       <r>    0.6447    0.0000 </r>
       <r>    2.2378    0.0000 </r>
       <r>    2.2378    0.0000 </r>
       <r>    4.9666    0.0000 </r>
       <r>    4.9666    0.0000 </r>
       <r>    6.8726    0.0000 </r>
       <r>    6.8726    0.0000 </r>
      </set>
      <set comment="kpoint 3">
       <r>   -2.2148    1.0000 </r>
       <r>   -1.0004    1.0000 </r>
       <r>    3.1791    0.0000 </r>
       <r>    3.1791    0.0000 </r>
       <r>    4.7386    0.0000 </r>
       <r>    4.7386    0.0000 </r>
       <r>    4.8006    0.0000 </r>
       <r>    4.8006    0.0000 </r>
      </set>
      <set comment="kpoint 4">
       <r>   -2.7002    1.0000 </r>
       <r>    0.8963    0.0000 </r>
       <r>    0.8963    0.0000 </r>
       <r>    2.5520    0.0000 </r>
       <r>    4.1663    0.0000 </r>
       <r>    6.7521    0.0000 </r>
       <r>    6.8075    0.0000 </r>
       <r>    6.8075    0.0000 </r>
      </set>
      <set comment="kpoint 5">
       <r>   -1.9761    1.0000 </r>
       <r>   -0.7617    1.0000 </r>
       <r>    1.6342    0.0000 </r>
       <r>    2.7933    0.0000 </r>
       <r>    3.4929    0.0000 </r>
       <r>    5.0514    0.0000 </r>
       <r>    6.5885    0.0000 </r>
       <r>    6.5929    0.0000 </r>
      </set>
      <set comment="kpoint 6">
       <r>   -1.2555    1.0000 </r>
       <r>   -0.0449    0.9958 </r>
       <r>   -0.0449    0.9958 </r>
       <r>    1.1480    0.0000 </r>
       <r>    4.4323    0.0000 </r>
       <r>    5.9874    0.0000 </r>
       <r>    5.9874    0.0000 </r>
       <r>    7.5349    0.0000 </r>
      </set>
      <set comment="kpoint 7">
       <r>   -2.4619    1.0000 </r>
       <r>    1.1164    0.0000 </r>
       <r>    1.1164    0.0000 </r>
       <r>    1.1164    0.0000 </r>
       <r>    5.2948    0.0000 </r>
       <r>    5.2948    0.0000 </r>
       <r>    5.2948    0.0000 </r>
       <r>    7.9420    0.0000 </r>
      </set>
      <set comment="kpoint 8">
       <r>   -1.7428    1.0000 </r>
       <r>   -0.5372    1.0000 </r>
       <r>    1.6440    0.0000 </r>
       <r>    1.6440    0.0000 </r>
       <r>    3.9042    0.0000 </r>
       <r>    3.9042    0.0000 </r>
       <r>    6.4815    0.0000 </r>
       <r>    7.9632    0.0000 </r>
      </set>
      <set comment="kpoint 9">
       <r>   -1.0419    1.0000 </r>
       <r>    0.1175    0.9804 </r>
       <r>    0.1175    0.9804 </r>
       <r>    1.0709    0.0000 </r>
       <r>    3.6765    0.0000 </r>
       <r>    4.7680    0.0000 </r>
       <r>    4.7680    0.0000 </r>
       <r>    6.1368    0.0000 </r>
      </set>
      <set comment="kpoint 10">
       <r>   -0.4234    1.0000 </r>
       <r>    0.4617    0.0006 </r>
       <r>    0.4617    0.0006 </r>
       <r>    0.4617    0.0006 </r>
       <r>    3.5332    0.0000 </r>
       <r>    3.5332    0.0000 </r>
       <r>    3.5332    0.0000 </r>
       <r>    4.5229    0.0000 </r>
      </set>
     </set>
    </set>
   </array>
  </eigenvalues>
  <separator name="orbital magnetization" >
   <v name="MAGDIPOLOUT">      0.00000000      0.00000000      0.00000000</v>
  </separator>
  <dos>
   <i name="efermi">      0.17584784 </i>
   <total>
    <array>
     <dimension dim="1">gridpoints</dimension>
     <dimension dim="2">spin</dimension>
     <field>energy</field>
     <field>total</field>
     <field>integrated</field>
     <set>
      <set comment="spin 1">
       <r>    -4.9791     0.0000     0.0000 </r>
       <r>    -4.9071     0.0000     0.0000 </r>
       <r>    -4.8351     0.0000     0.0000 </r>
       <r>    -4.7631     0.0000     0.0000 </r>
       <r>    -4.6912     0.0000     0.0000 </r>
       <r>    -4.6192     0.0000     0.0000 </r>
       <r>    -4.5472     0.0000     0.0000 </r>
       <r>    -4.4752     0.0000     0.0000 </r>
       <r>    -4.4032     0.0000     0.0000 </r>
       <r>    -4.3313     0.0000     0.0000 </r>
       <r>    -4.2593     0.0000     0.0000 </r>
       <r>    -4.1873     0.0000     0.0000 </r>
       <r>    -4.1153     0.0000     0.0000 </r>
       <r>    -4.0434     0.0000     0.0000 </r>
       <r>    -3.9714     0.0000     0.0000 </r>
       <r>    -3.8994     0.0000     0.0000 </r>
       <r>    -3.8274     0.0000     0.0000 </r>
       <r>    -3.7554     0.0000     0.0000 </r>
       <r>    -3.6835     0.0000     0.0000 </r>
       <r>    -3.6115     0.0000     0.0000 </r>
       <r>    -3.5395     0.0000     0.0000 </r>
       <r>    -3.4675     0.0001     0.0000 </r>
       <r>    -3.3956     0.0004     0.0000 </r>
       <r>    -3.3236    -0.0023    -0.0001 </r>
       <r>    -3.2516    -0.0008    -0.0002 </r>
       <r>    -3.1796     0.0609     0.0042 </r>
       <r>    -3.1076     0.0553     0.0082 </r>
       <r>    -3.0357    -0.0351     0.0056 </r>
       <r>    -2.9637     0.2085     0.0207 </r>
       <r>    -2.8917     0.4503     0.0531 </r>
       <r>    -2.8197     0.0144     0.0541 </r>
       <r>    -2.7478     0.1264     0.0632 </r>
       <r>    -2.6758     0.9022     0.1281 </r>
       <r>    -2.6038     0.3846     0.1558 </r>
       <r>    -2.5318    -0.0700     0.1508 </r>
       <r>    -2.4598     0.4818     0.1855 </r>
       <r>    -2.3879     0.4524     0.2180 </r>
       <r>    -2.3159    -0.0499     0.2144 </r>
       <r>    -2.2439     0.1633     0.2262 </r>
       <r>    -2.1719     0.4684     0.2599 </r>
       <r>    -2.0999    -0.0070     0.2594 </r>
       <r>    -2.0280     0.2027     0.2740 </r>
       <r>    -1.9560     1.7634     0.4009 </r>
       <r>    -1.8840     0.8532     0.4623 </r>
       <r>    -1.8120    -0.1301     0.4530 </r>
       <r>    -1.7401     1.4526     0.5575 </r>
       <r>    -1.6681     1.3434     0.6542 </r>
       <r>    -1.5961    -0.0512     0.6505 </r>
       <r>    -1.5241    -0.0452     0.6473 </r>
       <r>    -1.4521     0.0152     0.6484 </r>
       <r>    -1.3802    -0.0500     0.6448 </r>
       <r>    -1.3082     0.1123     0.6529 </r>
       <r>    -1.2362     0.8819     0.7163 </r>
       <r>    -1.1642     0.3547     0.7419 </r>
       <r>    -1.0923     0.1622     0.7535 </r>
       <r>    -1.0203     1.9969     0.8973 </r>
       <r>    -0.9483     1.3204     0.9923 </r>
       <r>    -0.8763    -0.2024     0.9777 </r>
       <r>    -0.8043     0.3693     1.0043 </r>
       <r>    -0.7324     1.8445     1.1371 </r>
       <r>    -0.6604     0.5846     1.1792 </r>
       <r>    -0.5884     0.1012     1.1865 </r>
       <r>    -0.5164     1.7118     1.3097 </r>
       <r>    -0.4445     1.2025     1.3962 </r>
       <r>    -0.3725     0.4542     1.4289 </r>
       <r>    -0.3005     0.0707     1.4340 </r>
       <r>    -0.2285    -0.0230     1.4323 </r>
       <r>    -0.1565    -0.1212     1.4236 </r>
       <r>    -0.0846     0.4895     1.4589 </r>
       <r>    -0.0126     1.6579     1.5782 </r>
       <r>     0.0594     0.8850     1.6419 </r>
       <r>     0.1314     3.2001     1.8722 </r>
       <r>     0.2033     2.1408     2.0263 </r>
       <r>     0.2753    -0.2141     2.0109 </r>
       <r>     0.3473    -0.1731     1.9984 </r>
       <r>     0.4193     0.4277     2.0292 </r>
       <r>     0.4913     1.8190     2.1602 </r>
       <r>     0.5632     0.6599     2.2077 </r>
       <r>     0.6352     0.1628     2.2194 </r>
       <r>     0.7072     0.4015     2.2483 </r>
       <r>     0.7792    -0.0953     2.2414 </r>
       <r>     0.8512     0.3501     2.2666 </r>
       <r>     0.9231     1.7821     2.3949 </r>
       <r>     0.9951     0.5635     2.4354 </r>
       <r>     1.0671     1.4189     2.5376 </r>
       <r>     1.1391     3.8512     2.8148 </r>
       <r>     1.2110     1.6490     2.9335 </r>
       <r>     1.2830    -0.1652     2.9216 </r>
       <r>     1.3550    -0.0329     2.9192 </r>
       <r>     1.4270     0.0461     2.9225 </r>
       <r>     1.4990    -0.1776     2.9097 </r>
       <r>     1.5709    -0.0033     2.9095 </r>
       <r>     1.6429     4.3525     3.2228 </r>
       <r>     1.7149     4.0384     3.5135 </r>
       <r>     1.7869    -0.1394     3.5034 </r>
       <r>     1.8588    -0.1389     3.4934 </r>
       <r>     1.9308     0.2257     3.5097 </r>
       <r>     2.0028     0.1610     3.5213 </r>
       <r>     2.0748    -0.0186     3.5199 </r>
       <r>     2.1468    -0.0680     3.5150 </r>
       <r>     2.2187     0.4773     3.5494 </r>
       <r>     2.2907     0.8682     3.6119 </r>
       <r>     2.3627     0.1068     3.6196 </r>
       <r>     2.4347    -0.1099     3.6117 </r>
       <r>     2.5066     0.1808     3.6247 </r>
       <r>     2.5786     0.9166     3.6907 </r>
       <r>     2.6506     0.3199     3.7137 </r>
       <r>     2.7226    -0.0824     3.7077 </r>
       <r>     2.7946     1.4338     3.8110 </r>
       <r>     2.8665     1.3717     3.9097 </r>
       <r>     2.9385    -0.0371     3.9070 </r>
       <r>     3.0105    -0.0544     3.9031 </r>
       <r>     3.0825    -0.0576     3.8990 </r>
       <r>     3.1544     0.4082     3.9283 </r>
       <r>     3.2264     0.8989     3.9930 </r>
       <r>     3.2984     0.1687     4.0052 </r>
       <r>     3.3704    -0.1812     3.9921 </r>
       <r>     3.4424     0.1400     4.0022 </r>
       <r>     3.5143     2.7066     4.1970 </r>
       <r>     3.5863     2.4863     4.3760 </r>
       <r>     3.6583     1.0547     4.4519 </r>
       <r>     3.7303     1.6030     4.5673 </r>
       <r>     3.8022    -0.0665     4.5625 </r>
       <r>     3.8742     1.2767     4.6544 </r>
       <r>     3.9462     3.6660     4.9183 </r>
       <r>     4.0182     0.7911     4.9752 </r>
       <r>     4.0902    -0.2782     4.9552 </r>
       <r>     4.1621     0.6725     5.0036 </r>
       <r>     4.2341     0.7557     5.0580 </r>
       <r>     4.3061    -0.0415     5.0550 </r>
       <r>     4.3781     0.0479     5.0585 </r>
       <r>     4.4501     0.8574     5.1202 </r>
       <r>     4.5220     0.9683     5.1899 </r>
       <r>     4.5940     0.3823     5.2174 </r>
       <r>     4.6660    -0.3465     5.1924 </r>
       <r>     4.7380     2.0928     5.3431 </r>
       <r>     4.8099     5.1512     5.7139 </r>
       <r>     4.8819     1.3323     5.8097 </r>
       <r>     4.9539     0.0838     5.8158 </r>
       <r>     5.0259     1.6435     5.9341 </r>
       <r>     5.0979     2.0937     6.0848 </r>
       <r>     5.1698     0.2926     6.1058 </r>
       <r>     5.2418     0.0869     6.1121 </r>
       <r>     5.3138     1.7455     6.2377 </r>
       <r>     5.3858     0.9452     6.3058 </r>
       <r>     5.4577    -0.1277     6.2966 </r>
       <r>     5.5297    -0.0160     6.2954 </r>
       <r>     5.6017     0.0077     6.2960 </r>
       <r>     5.6737     0.0010     6.2960 </r>
       <r>     5.7457     0.0067     6.2965 </r>
       <r>     5.8176    -0.0073     6.2960 </r>
       <r>     5.8896    -0.1312     6.2865 </r>
       <r>     5.9616     0.7835     6.3429 </r>
       <r>     6.0336     1.6620     6.4626 </r>
       <r>     6.1055     0.9792     6.5330 </r>
       <r>     6.1775     1.7150     6.6565 </r>
       <r>     6.2495     0.4491     6.6888 </r>
       <r>     6.3215    -0.1393     6.6788 </r>
       <r>     6.3935    -0.0930     6.6721 </r>
       <r>     6.4654     0.8297     6.7318 </r>
       <r>     6.5374     2.1206     6.8844 </r>
       <r>     6.6094     3.6083     7.1442 </r>
       <r>     6.6814     1.7007     7.2666 </r>
       <r>     6.7533     0.6131     7.3107 </r>
       <r>     6.8253     2.5342     7.4931 </r>
       <r>     6.8973     1.8613     7.6271 </r>
       <r>     6.9693     0.2515     7.6452 </r>
       <r>     7.0413    -0.0807     7.6394 </r>
       <r>     7.1132     0.0043     7.6397 </r>
       <r>     7.1852     0.0040     7.6400 </r>
       <r>     7.2572     0.0012     7.6401 </r>
       <r>     7.3292     0.0055     7.6405 </r>
       <r>     7.4012    -0.0398     7.6376 </r>
       <r>     7.4731     0.0422     7.6406 </r>
       <r>     7.5451     0.8045     7.6985 </r>
       <r>     7.6171     0.5797     7.7403 </r>
       <r>     7.6891    -0.0447     7.7371 </r>
       <r>     7.7610    -0.0038     7.7368 </r>
       <r>     7.8330    -0.1286     7.7275 </r>
       <r>     7.9050     0.3085     7.7497 </r>
       <r>     7.9770     2.2805     7.9139 </r>
       <r>     8.0490     1.2557     8.0043 </r>
       <r>     8.1209    -0.1576     7.9929 </r>
       <r>     8.1929    -0.0239     7.9912 </r>
       <r>     8.2649     0.0103     7.9919 </r>
       <r>     8.3369     0.0008     7.9920 </r>
       <r>     8.4088     0.0000     7.9920 </r>
       <r>     8.4808     0.0000     7.9920 </r>
       <r>     8.5528     0.0001     7.9920 </r>
       <r>     8.6248     0.0004     7.9920 </r>
       <r>     8.6968    -0.0046     7.9917 </r>
       <r>     8.7687     0.0114     7.9925 </r>
       <r>     8.8407     0.0740     7.9979 </r>
       <r>     8.9127     0.0355     8.0004 </r>
       <r>     8.9847    -0.0056     8.0000 </r>
       <r>     9.0566    -0.0005     8.0000 </r>
       <r>     9.1286     0.0003     8.0000 </r>
       <r>     9.2006     0.0000     8.0000 </r>
       <r>     9.2726     0.0000     8.0000 </r>
       <r>     9.3446     0.0000     8.0000 </r>
       <r>     9.4165     0.0000     8.0000 </r>
       <r>     9.4885     0.0000     8.0000 </r>
       <r>     9.5605     0.0000     8.0000 </r>
       <r>     9.6325     0.0000     8.0000 </r>
       <r>     9.7044     0.0000     8.0000 </r>
       <r>     9.7764     0.0000     8.0000 </r>
       <r>     9.8484     0.0000     8.0000 </r>
       <r>     9.9204     0.0000     8.0000 </r>
       <r>     9.9924     0.0000     8.0000 </r>
       <r>    10.0643     0.0000     8.0000 </r>
       <r>    10.1363     0.0000     8.0000 </r>
       <r>    10.2083     0.0000     8.0000 </r>
       <r>    10.2803     0.0000     8.0000 </r>
       <r>    10.3522     0.0000     8.0000 </r>
       <r>    10.4242     0.0000     8.0000 </r>
       <r>    10.4962     0.0000     8.0000 </r>
       <r>    10.5682     0.0000     8.0000 </r>
       <r>    10.6402     0.0000     8.0000 </r>
       <r>    10.7121     0.0000     8.0000 </r>
       <r>    10.7841     0.0000     8.0000 </r>
       <r>    10.8561     0.0000     8.0000 </r>
       <r>    10.9281     0.0000     8.0000 </r>
       <r>    11.0001     0.0000     8.0000 </r>
       <r>    11.0720     0.0000     8.0000 </r>
       <r>    11.1440     0.0000     8.0000 </r>
       <r>    11.2160     0.0000     8.0000 </r>
       <r>    11.2880     0.0000     8.0000 </r>
       <r>    11.3599     0.0000     8.0000 </r>
       <r>    11.4319     0.0000     8.0000 </r>
       <r>    11.5039     0.0000     8.0000 </r>
       <r>    11.5759     0.0000     8.0000 </r>
       <r>    11.6479     0.0000     8.0000 </r>
       <r>    11.7198     0.0000     8.0000 </r>
       <r>    11.7918     0.0000     8.0000 </r>
       <r>    11.8638     0.0000     8.0000 </r>
       <r>    11.9358     0.0000     8.0000 </r>
       <r>    12.0077     0.0000     8.0000 </r>
       <r>    12.0797     0.0000     8.0000 </r>
       <r>    12.1517     0.0000     8.0000 </r>
       <r>    12.2237     0.0000     8.0000 </r>
       <r>    12.2957     0.0000     8.0000 </r>
       <r>    12.3676     0.0000     8.0000 </r>
       <r>    12.4396     0.0000     8.0000 </r>
       <r>    12.5116     0.0000     8.0000 </r>
       <r>    12.5836     0.0000     8.0000 </r>
       <r>    12.6555     0.0000     8.0000 </r>
       <r>    12.7275     0.0000     8.0000 </r>
       <r>    12.7995     0.0000     8.0000 </r>
       <r>    12.8715     0.0000     8.0000 </r>
       <r>    12.9435     0.0000     8.0000 </r>
       <r>    13.0154     0.0000     8.0000 </r>
       <r>    13.0874     0.0000     8.0000 </r>
       <r>    13.1594     0.0000     8.0000 </r>
       <r>    13.2314     0.0000     8.0000 </r>
       <r>    13.3033     0.0000     8.0000 </r>
       <r>    13.3753     0.0000     8.0000 </r>
       <r>    13.4473     0.0000     8.0000 </r>
       <r>    13.5193     0.0000     8.0000 </r>
       <r>    13.5913     0.0000     8.0000 </r>
       <r>    13.6632     0.0000     8.0000 </r>
       <r>    13.7352     0.0000     8.0000 </r>
       <r>    13.8072     0.0000     8.0000 </r>
       <r>    13.8792     0.0000     8.0000 </r>
       <r>    13.9512     0.0000     8.0000 </r>
       <r>    14.0231     0.0000     8.0000 </r>
       <r>    14.0951     0.0000     8.0000 </r>
       <r>    14.1671     0.0000     8.0000 </r>
       <r>    14.2391     0.0000     8.0000 </r>
       <r>    14.3110     0.0000     8.0000 </r>
       <r>    14.3830     0.0000     8.0000 </r>
       <r>    14.4550     0.0000     8.0000 </r>
       <r>    14.5270     0.0000     8.0000 </r>
       <r>    14.5990     0.0000     8.0000 </r>
       <r>    14.6709     0.0000     8.0000 </r>
       <r>    14.7429     0.0000     8.0000 </r>
       <r>    14.8149     0.0000     8.0000 </r>
       <r>    14.8869     0.0000     8.0000 </r>
       <r>    14.9588     0.0000     8.0000 </r>
       <r>    15.0308     0.0000     8.0000 </r>
       <r>    15.1028     0.0000     8.0000 </r>
       <r>    15.1748     0.0000     8.0000 </r>
       <r>    15.2468     0.0000     8.0000 </r>
       <r>    15.3187     0.0000     8.0000 </r>
       <r>    15.3907     0.0000     8.0000 </r>
       <r>    15.4627     0.0000     8.0000 </r>
       <r>    15.5347     0.0000     8.0000 </r>
       <r>    15.6066     0.0000     8.0000 </r>
       <r>    15.6786     0.0000     8.0000 </r>
       <r>    15.7506     0.0000     8.0000 </r>
       <r>    15.8226     0.0000     8.0000 </r>
       <r>    15.8946     0.0000     8.0000 </r>
       <r>    15.9665     0.0000     8.0000 </r>
       <r>    16.0385     0.0000     8.0000 </r>
       <r>    16.1105     0.0000     8.0000 </r>
       <r>    16.1825     0.0000     8.0000 </r>
       <r>    16.2544     0.0000     8.0000 </r>
       <r>    16.3264     0.0000     8.0000 </r>
       <r>    16.3984     0.0000     8.0000 </r>
       <r>    16.4704     0.0000     8.0000 </r>
       <r>    16.5424     0.0000     8.0000 </r>
       <r>    16.6143     0.0000     8.0000 </r>
      </set>
      <set comment="spin 2">
       <r>    -4.9791     0.0000     0.0000 </r>
       <r>    -4.9071     0.0000     0.0000 </r>
       <r>    -4.8351     0.0000     0.0000 </r>
       <r>    -4.7631     0.0000     0.0000 </r>
       <r>    -4.6912     0.0000     0.0000 </r>
       <r>    -4.6192     0.0000     0.0000 </r>
       <r>    -4.5472     0.0000     0.0000 </r>
       <r>    -4.4752     0.0000     0.0000 </r>
       <r>    -4.4032     0.0000     0.0000 </r>
       <r>    -4.3313     0.0000     0.0000 </r>
       <r>    -4.2593     0.0000     0.0000 </r>
       <r>    -4.1873     0.0000     0.0000 </r>
       <r>    -4.1153     0.0000     0.0000 </r>
       <r>    -4.0434     0.0000     0.0000 </r>
       <r>    -3.9714     0.0000     0.0000 </r>
       <r>    -3.8994     0.0000     0.0000 </r>
       <r>    -3.8274     0.0000     0.0000 </r>
       <r>    -3.7554     0.0000     0.0000 </r>
       <r>    -3.6835     0.0000     0.0000 </r>
       <r>    -3.6115     0.0000     0.0000 </r>
       <r>    -3.5395     0.0000     0.0000 </r>
       <r>    -3.4675     0.0001     0.0000 </r>
       <r>    -3.3956     0.0004     0.0000 </r>
       <r>    -3.3236    -0.0023    -0.0001 </r>
       <r>    -3.2516    -0.0009    -0.0002 </r>
       <r>    -3.1796     0.0606     0.0042 </r>
       <r>    -3.1076     0.0556     0.0082 </r>
       <r>    -3.0357    -0.0351     0.0056 </r>
       <r>    -2.9637     0.2067     0.0205 </r>
       <r>    -2.8917     0.4510     0.0530 </r>
       <r>    -2.8197     0.0161     0.0541 </r>
       <r>    -2.7478     0.1235     0.0630 </r>
       <r>    -2.6758     0.9009     0.1279 </r>
       <r>    -2.6038     0.3885     0.1558 </r>
       <r>    -2.5318    -0.0708     0.1507 </r>
       <r>    -2.4598     0.4796     0.1853 </r>
       <r>    -2.3879     0.4548     0.2180 </r>
       <r>    -2.3159    -0.0491     0.2145 </r>
       <r>    -2.2439     0.1613     0.2261 </r>
       <r>    -2.1719     0.4689     0.2598 </r>
       <r>    -2.0999    -0.0048     0.2595 </r>
       <r>    -2.0280     0.1976     0.2737 </r>
       <r>    -1.9560     1.7601     0.4004 </r>
       <r>    -1.8840     0.8612     0.4624 </r>
       <r>    -1.8120    -0.1324     0.4528 </r>
       <r>    -1.7401     1.4462     0.5569 </r>
       <r>    -1.6681     1.3500     0.6541 </r>
       <r>    -1.5961    -0.0490     0.6506 </r>
       <r>    -1.5241    -0.0459     0.6473 </r>
       <r>    -1.4521     0.0153     0.6484 </r>
       <r>    -1.3802    -0.0496     0.6448 </r>
       <r>    -1.3082     0.1099     0.6527 </r>
       <r>    -1.2362     0.8803     0.7161 </r>
       <r>    -1.1642     0.3590     0.7419 </r>
       <r>    -1.0923     0.1573     0.7532 </r>
       <r>    -1.0203     1.9919     0.8966 </r>
       <r>    -0.9483     1.3285     0.9922 </r>
       <r>    -0.8763    -0.2003     0.9778 </r>
       <r>    -0.8043     0.3630     1.0039 </r>
       <r>    -0.7324     1.8432     1.1366 </r>
       <r>    -0.6604     0.5921     1.1792 </r>
       <r>    -0.5884     0.0965     1.1862 </r>
       <r>    -0.5164     1.7083     1.3091 </r>
       <r>    -0.4445     1.2072     1.3960 </r>
       <r>    -0.3725     0.4557     1.4288 </r>
       <r>    -0.3005     0.0719     1.4340 </r>
       <r>    -0.2285    -0.0230     1.4324 </r>
       <r>    -0.1565    -0.1209     1.4237 </r>
       <r>    -0.0846     0.4836     1.4585 </r>
       <r>    -0.0126     1.6587     1.5778 </r>
       <r>     0.0594     0.8835     1.6414 </r>
       <r>     0.1314     3.1913     1.8711 </r>
       <r>     0.2033     2.1546     2.0262 </r>
       <r>     0.2753    -0.2118     2.0110 </r>
       <r>     0.3473    -0.1736     1.9985 </r>
       <r>     0.4193     0.4220     2.0289 </r>
       <r>     0.4913     1.8178     2.1597 </r>
       <r>     0.5632     0.6663     2.2077 </r>
       <r>     0.6352     0.1611     2.2192 </r>
       <r>     0.7072     0.4025     2.2482 </r>
       <r>     0.7792    -0.0939     2.2415 </r>
       <r>     0.8512     0.3445     2.2663 </r>
       <r>     0.9231     1.7810     2.3945 </r>
       <r>     0.9951     0.5690     2.4354 </r>
       <r>     1.0671     1.4069     2.5367 </r>
       <r>     1.1391     3.8506     2.8138 </r>
       <r>     1.2110     1.6613     2.9334 </r>
       <r>     1.2830    -0.1638     2.9216 </r>
       <r>     1.3550    -0.0337     2.9192 </r>
       <r>     1.4270     0.0461     2.9225 </r>
       <r>     1.4990    -0.1756     2.9099 </r>
       <r>     1.5709    -0.0113     2.9091 </r>
       <r>     1.6429     4.3352     3.2211 </r>
       <r>     1.7149     4.0571     3.5131 </r>
       <r>     1.7869    -0.1329     3.5036 </r>
       <r>     1.8588    -0.1411     3.4934 </r>
       <r>     1.9308     0.2252     3.5096 </r>
       <r>     2.0028     0.1618     3.5213 </r>
       <r>     2.0748    -0.0182     3.5200 </r>
       <r>     2.1468    -0.0684     3.5150 </r>
       <r>     2.2187     0.4742     3.5492 </r>
       <r>     2.2907     0.8697     3.6118 </r>
       <r>     2.3627     0.1089     3.6196 </r>
       <r>     2.4347    -0.1100     3.6117 </r>
       <r>     2.5066     0.1784     3.6245 </r>
       <r>     2.5786     0.9157     3.6904 </r>
       <r>     2.6506     0.3237     3.7137 </r>
       <r>     2.7226    -0.0849     3.7076 </r>
       <r>     2.7946     1.4277     3.8104 </r>
       <r>     2.8665     1.3780     3.9096 </r>
       <r>     2.9385    -0.0348     3.9071 </r>
       <r>     3.0105    -0.0549     3.9031 </r>
       <r>     3.0825    -0.0577     3.8990 </r>
       <r>     3.1544     0.4051     3.9281 </r>
       <r>     3.2264     0.9000     3.9929 </r>
       <r>     3.2984     0.1710     4.0052 </r>
       <r>     3.3704    -0.1805     3.9922 </r>
       <r>     3.4424     0.1350     4.0019 </r>
       <r>     3.5143     2.6976     4.1961 </r>
       <r>     3.5863     2.4952     4.3757 </r>
       <r>     3.6583     1.0529     4.4515 </r>
       <r>     3.7303     1.6058     4.5671 </r>
       <r>     3.8022    -0.0622     4.5626 </r>
       <r>     3.8742     1.2637     4.6535 </r>
       <r>     3.9462     3.6683     4.9176 </r>
       <r>     4.0182     0.8022     4.9753 </r>
       <r>     4.0902    -0.2801     4.9552 </r>
       <r>     4.1621     0.6688     5.0033 </r>
       <r>     4.2341     0.7588     5.0579 </r>
       <r>     4.3061    -0.0397     5.0551 </r>
       <r>     4.3781     0.0457     5.0583 </r>
       <r>     4.4501     0.8550     5.1199 </r>
       <r>     4.5220     0.9694     5.1897 </r>
       <r>     4.5940     0.3854     5.2174 </r>
       <r>     4.6660    -0.3465     5.1925 </r>
       <r>     4.7380     2.0754     5.3418 </r>
       <r>     4.8099     5.1537     5.7128 </r>
       <r>     4.8819     1.3476     5.8098 </r>
       <r>     4.9539     0.0793     5.8155 </r>
       <r>     5.0259     1.6387     5.9335 </r>
       <r>     5.0979     2.0975     6.0844 </r>
       <r>     5.1698     0.2985     6.1059 </r>
       <r>     5.2418     0.0821     6.1118 </r>
       <r>     5.3138     1.7421     6.2372 </r>
       <r>     5.3858     0.9518     6.3057 </r>
       <r>     5.4577    -0.1271     6.2966 </r>
       <r>     5.5297    -0.0164     6.2954 </r>
       <r>     5.6017     0.0078     6.2960 </r>
       <r>     5.6737     0.0010     6.2960 </r>
       <r>     5.7457     0.0066     6.2965 </r>
       <r>     5.8176    -0.0070     6.2960 </r>
       <r>     5.8896    -0.1314     6.2865 </r>
       <r>     5.9616     0.7777     6.3425 </r>
       <r>     6.0336     1.6640     6.4623 </r>
       <r>     6.1055     0.9777     6.5327 </r>
       <r>     6.1775     1.7154     6.6561 </r>
       <r>     6.2495     0.4544     6.6888 </r>
       <r>     6.3215    -0.1393     6.6788 </r>
       <r>     6.3935    -0.0938     6.6721 </r>
       <r>     6.4654     0.8247     6.7314 </r>
       <r>     6.5374     2.1147     6.8836 </r>
       <r>     6.6094     3.6055     7.1432 </r>
       <r>     6.6814     1.7140     7.2665 </r>
       <r>     6.7533     0.6069     7.3102 </r>
       <r>     6.8253     2.5306     7.4924 </r>
       <r>     6.8973     1.8691     7.6269 </r>
       <r>     6.9693     0.2548     7.6452 </r>
       <r>     7.0413    -0.0811     7.6394 </r>
       <r>     7.1132     0.0043     7.6397 </r>
       <r>     7.1852     0.0040     7.6400 </r>
       <r>     7.2572     0.0012     7.6401 </r>
       <r>     7.3292     0.0055     7.6405 </r>
       <r>     7.4012    -0.0395     7.6376 </r>
       <r>     7.4731     0.0407     7.6406 </r>
       <r>     7.5451     0.8025     7.6983 </r>
       <r>     7.6171     0.5824     7.7402 </r>
       <r>     7.6891    -0.0442     7.7371 </r>
       <r>     7.7610    -0.0040     7.7368 </r>
       <r>     7.8330    -0.1279     7.7276 </r>
       <r>     7.9050     0.3028     7.7494 </r>
       <r>     7.9770     2.2766     7.9132 </r>
       <r>     8.0490     1.2641     8.0042 </r>
       <r>     8.1209    -0.1567     7.9930 </r>
       <r>     8.1929    -0.0244     7.9912 </r>
       <r>     8.2649     0.0104     7.9919 </r>
       <r>     8.3369     0.0008     7.9920 </r>
       <r>     8.4088     0.0000     7.9920 </r>
       <r>     8.4808     0.0000     7.9920 </r>
       <r>     8.5528     0.0001     7.9920 </r>
       <r>     8.6248     0.0004     7.9920 </r>
       <r>     8.6968    -0.0046     7.9917 </r>
       <r>     8.7687     0.0113     7.9925 </r>
       <r>     8.8407     0.0739     7.9978 </r>
       <r>     8.9127     0.0357     8.0004 </r>
       <r>     8.9847    -0.0056     8.0000 </r>
       <r>     9.0566    -0.0005     8.0000 </r>
       <r>     9.1286     0.0003     8.0000 </r>
       <r>     9.2006     0.0000     8.0000 </r>
       <r>     9.2726     0.0000     8.0000 </r>
       <r>     9.3446     0.0000     8.0000 </r>
       <r>     9.4165     0.0000     8.0000 </r>
       <r>     9.4885     0.0000     8.0000 </r>
       <r>     9.5605     0.0000     8.0000 </r>
       <r>     9.6325     0.0000     8.0000 </r>
       <r>     9.7044     0.0000     8.0000 </r>
       <r>     9.7764     0.0000     8.0000 </r>
       <r>     9.8484     0.0000     8.0000 </r>
       <r>     9.9204     0.0000     8.0000 </r>
       <r>     9.9924     0.0000     8.0000 </r>
       <r>    10.0643     0.0000     8.0000 </r>
       <r>    10.1363     0.0000     8.0000 </r>
       <r>    10.2083     0.0000     8.0000 </r>
       <r>    10.2803     0.0000     8.0000 </r>
       <r>    10.3522     0.0000     8.0000 </r>
       <r>    10.4242     0.0000     8.0000 </r>
       <r>    10.4962     0.0000     8.0000 </r>
       <r>    10.5682     0.0000     8.0000 </r>
       <r>    10.6402     0.0000     8.0000 </r>
       <r>    10.7121     0.0000     8.0000 </r>
       <r>    10.7841     0.0000     8.0000 </r>
       <r>    10.8561     0.0000     8.0000 </r>
       <r>    10.9281     0.0000     8.0000 </r>
       <r>    11.0001     0.0000     8.0000 </r>
       <r>    11.0720     0.0000     8.0000 </r>
       <r>    11.1440     0.0000     8.0000 </r>
       <r>    11.2160     0.0000     8.0000 </r>
       <r>    11.2880     0.0000     8.0000 </r>
       <r>    11.3599     0.0000     8.0000 </r>
       <r>    11.4319     0.0000     8.0000 </r>
       <r>    11.5039     0.0000     8.0000 </r>
       <r>    11.5759     0.0000     8.0000 </r>
       <r>    11.6479     0.0000     8.0000 </r>
       <r>    11.7198     0.0000     8.0000 </r>
       <r>    11.7918     0.0000     8.0000 </r>
       <r>    11.8638     0.0000     8.0000 </r>
       <r>    11.9358     0.0000     8.0000 </r>
       <r>    12.0077     0.0000     8.0000 </r>
       <r>    12.0797     0.0000     8.0000 </r>
       <r>    12.1517     0.0000     8.0000 </r>
       <r>    12.2237     0.0000     8.0000 </r>
       <r>    12.2957     0.0000     8.0000 </r>
       <r>    12.3676     0.0000     8.0000 </r>
       <r>    12.4396     0.0000     8.0000 </r>
       <r>    12.5116     0.0000     8.0000 </r>
       <r>    12.5836     0.0000     8.0000 </r>
       <r>    12.6555     0.0000     8.0000 </r>
       <r>    12.7275     0.0000     8.0000 </r>
       <r>    12.7995     0.0000     8.0000 </r>
       <r>    12.8715     0.0000     8.0000 </r>
       <r>    12.9435     0.0000     8.0000 </r>
       <r>    13.0154     0.0000     8.0000 </r>
       <r>    13.0874     0.0000     8.0000 </r>
       <r>    13.1594     0.0000     8.0000 </r>
       <r>    13.2314     0.0000     8.0000 </r>
       <r>    13.3033     0.0000     8.0000 </r>
       <r>    13.3753     0.0000     8.0000 </r>
       <r>    13.4473     0.0000     8.0000 </r>
       <r>    13.5193     0.0000     8.0000 </r>
       <r>    13.5913     0.0000     8.0000 </r>
       <r>    13.6632     0.0000     8.0000 </r>
       <r>    13.7352     0.0000     8.0000 </r>
       <r>    13.8072     0.0000     8.0000 </r>
       <r>    13.8792     0.0000     8.0000 </r>
       <r>    13.9512     0.0000     8.0000 </r>
       <r>    14.0231     0.0000     8.0000 </r>
       <r>    14.0951     0.0000     8.0000 </r>
       <r>    14.1671     0.0000     8.0000 </r>
       <r>    14.2391     0.0000     8.0000 </r>
       <r>    14.3110     0.0000     8.0000 </r>
       <r>    14.3830     0.0000     8.0000 </r>
       <r>    14.4550     0.0000     8.0000 </r>
       <r>    14.5270     0.0000     8.0000 </r>
       <r>    14.5990     0.0000     8.0000 </r>
       <r>    14.6709     0.0000     8.0000 </r>
       <r>    14.7429     0.0000     8.0000 </r>
       <r>    14.8149     0.0000     8.0000 </r>
       <r>    14.8869     0.0000     8.0000 </r>
       <r>    14.9588     0.0000     8.0000 </r>
       <r>    15.0308     0.0000     8.0000 </r>
       <r>    15.1028     0.0000     8.0000 </r>
       <r>    15.1748     0.0000     8.0000 </r>
       <r>    15.2468     0.0000     8.0000 </r>
       <r>    15.3187     0.0000     8.0000 </r>
       <r>    15.3907     0.0000     8.0000 </r>
       <r>    15.4627     0.0000     8.0000 </r>
       <r>    15.5347     0.0000     8.0000 </r>
       <r>    15.6066     0.0000     8.0000 </r>
       <r>    15.6786     0.0000     8.0000 </r>
       <r>    15.7506     0.0000     8.0000 </r>
       <r>    15.8226     0.0000     8.0000 </r>
       <r>    15.8946     0.0000     8.0000 </r>
       <r>    15.9665     0.0000     8.0000 </r>
       <r>    16.0385     0.0000     8.0000 </r>
       <r>    16.1105     0.0000     8.0000 </r>
       <r>    16.1825     0.0000     8.0000 </r>
       <r>    16.2544     0.0000     8.0000 </r>
       <r>    16.3264     0.0000     8.0000 </r>
       <r>    16.3984     0.0000     8.0000 </r>
       <r>    16.4704     0.0000     8.0000 </r>
       <r>    16.5424     0.0000     8.0000 </r>
       <r>    16.6143     0.0000     8.0000 </r>
      </set>
     </set>
    </array>
   </total>
  </dos>
 </calculation>
 <structure name="finalpos" >
  <crystal>
   <varray name="basis" >
    <v>       4.33250882       0.00000000       0.00000000 </v>
    <v>       0.00000000       4.33250882       0.00000000 </v>
    <v>       0.00000000       0.00000000       4.33250882 </v>
   </varray>
   <i name="volume">     81.32393165 </i>
   <varray name="rec_basis" >
    <v>       0.23081315      -0.00000000      -0.00000000 </v>
    <v>      -0.00000000       0.23081315       0.00000000 </v>
    <v>      -0.00000000      -0.00000000       0.23081315 </v>
   </varray>
  </crystal>
  <varray name="positions" >
   <v>       0.00000000      -0.00000000       0.00000000 </v>
   <v>      -0.00000000       0.50000000       0.50000000 </v>
   <v>       0.50000000       0.00000000       0.50000000 </v>
   <v>       0.50000000       0.50000000      -0.00000000 </v>
  </varray>
 </structure>
</modeling>
