Crystal                                 
           1
     4.319890    0.000000    0.000000
     0.000000    4.319890    0.000000
     0.000000    0.000000    4.319890
   Li
   4
Crystal                                 
           1
     4.323045    0.000000    0.000000
     0.000000    4.323045    0.000000
     0.000000    0.000000    4.323045
   Li
   4
Direct configuration=     1
   0.00000000  0.00000000  0.00000000
   0.00000000  0.50000000  0.50000000
   0.50000000  0.00000000  0.50000000
   0.50000000  0.50000000  0.00000000
Crystal                                 
           1
     4.332509    0.000000    0.000000
     0.000000    4.332509    0.000000
     0.000000    0.000000    4.332509
   Li
   4
Direct configuration=     2
   0.00000000 -0.00000000  0.00000000
  -0.00000000  0.50000000  0.50000000
   0.50000000  0.00000000  0.50000000
   0.50000000  0.50000000 -0.00000000
Crystal                                 
           1
     4.332509    0.000000    0.000000
     0.000000    4.332509    0.000000
     0.000000    0.000000    4.332509
   Li
   4
Direct configuration=     3
   0.00000000 -0.00000000  0.00000000
  -0.00000000  0.50000000  0.50000000
   0.50000000  0.00000000  0.50000000
   0.50000000  0.50000000 -0.00000000
