 vasp.5.3.3 18Dez12 (build Sep  7 2015 22:32:56) complex                        
  
 executed on             LinuxIFC date 2002.02.19  00:05:40
 running on    1 total cores
 distrk:  each k-point on    1 cores,    1 groups
 distr:  one band on NCORES_PER_BAND=   1 cores,    1 groups


--------------------------------------------------------------------------------------------------------


 INCAR:
 POTCAR:    PAW_PBE N 08Apr2002                   
 POTCAR:    PAW_PBE O 08Apr2002                   
 POTCAR:    PAW_PBE N 08Apr2002                   
   VRHFIN =N: s2p3                                                              
   LEXCH  = PE                                                                  
   EATOM  =   264.5486 eV,   19.4438 Ry                                         
                                                                                
   TITEL  = PAW_PBE N 08Apr2002                                                 
   LULTRA =        F    use ultrasoft PP ?                                      
   IUNSCR =        1    unscreen: 0-lin 1-nonlin 2-no                           
   RPACOR =    1.200    partial core radius                                     
   POMASS =   14.001; ZVAL   =    5.000    mass and valenz                      
   RCORE  =    1.500    outmost cutoff radius                                   
   RWIGS  =    1.400; RWIGS  =    0.741    wigner-seitz radius (au A)           
   ENMAX  =  400.000; ENMIN  =  300.000 eV                                      
   ICORE  =        2    local potential                                         
   LCOR   =        T    correct aug charges                                     
   LPAW   =        T    paw PP                                                  
   EAUG   =  627.112                                                            
   DEXC   =    0.000                                                            
   RMAX   =    1.529    core radius for proj-oper                               
   RAUG   =    1.300    factor for augmentation sphere                          
   RDEP   =    1.514    radius for radial grids                                 
   RDEPT  =    1.338    core radius for aug-charge                              
                                                                                
   Atomic configuration                                                         
    4 entries                                                                   
     n  l   j            E        occ.                                          
     1  0  0.50      -384.7179   2.0000                                         
     2  0  0.50       -18.5828   2.0000                                         
     2  1  0.50        -7.0898   3.0000                                         
     3  2  1.50        -6.8029   0.0000                                         
   Description                                                                  
     l       E           TYP  RCUT    TYP  RCUT                                 
     0    -18.5828119     23  1.200                                             
     0    -13.5018863     23  1.200                                             
     1     -7.0897853     23  1.500                                             
     1      9.5240782     23  1.500                                             
     2     -6.8029130      7  1.500                                             
  local pseudopotential read in
  partial core-charges read in
  partial kinetic energy density read in
  atomic valenz-charges read in
  non local Contribution for L=           0  read in
    real space projection operators read in
  non local Contribution for L=           0  read in
    real space projection operators read in
  non local Contribution for L=           1  read in
    real space projection operators read in
  non local Contribution for L=           1  read in
    real space projection operators read in
    PAW grid and wavefunctions read in
 
   number of l-projection  operators is LMAX  =           4
   number of lm-projection operators is LMMAX =           8
 
 POTCAR:    PAW_PBE O 08Apr2002                   
   VRHFIN =O: s2p4                                                              
   LEXCH  = PE                                                                  
   EATOM  =   432.3788 eV,   31.7789 Ry                                         
                                                                                
   TITEL  = PAW_PBE O 08Apr2002                                                 
   LULTRA =        F    use ultrasoft PP ?                                      
   IUNSCR =        1    unscreen: 0-lin 1-nonlin 2-no                           
   RPACOR =    1.200    partial core radius                                     
   POMASS =   16.000; ZVAL   =    6.000    mass and valenz                      
   RCORE  =    1.520    outmost cutoff radius                                   
   RWIGS  =    1.550; RWIGS  =    0.820    wigner-seitz radius (au A)           
   ENMAX  =  400.000; ENMIN  =  300.000 eV                                      
   ICORE  =        2    local potential                                         
   LCOR   =        T    correct aug charges                                     
   LPAW   =        T    paw PP                                                  
   EAUG   =  605.392                                                            
   DEXC   =    0.000                                                            
   RMAX   =    1.553    core radius for proj-oper                               
   RAUG   =    1.300    factor for augmentation sphere                          
   RDEP   =    1.550    radius for radial grids                                 
   RDEPT  =    1.329    core radius for aug-charge                              
                                                                                
   Atomic configuration                                                         
    4 entries                                                                   
     n  l   j            E        occ.                                          
     1  0  0.50      -514.6923   2.0000                                         
     2  0  0.50       -23.9615   2.0000                                         
     2  1  0.50        -9.0305   4.0000                                         
     3  2  1.50        -9.5241   0.0000                                         
   Description                                                                  
     l       E           TYP  RCUT    TYP  RCUT                                 
     0    -23.9615318     23  1.200                                             
     0     -9.5240782     23  1.200                                             
     1     -9.0304911     23  1.520                                             
     1      8.1634956     23  1.520                                             
     2     -9.5240782      7  1.500                                             
  local pseudopotential read in
  partial core-charges read in
  partial kinetic energy density read in
  kinetic energy density of atom read in
  atomic valenz-charges read in
  non local Contribution for L=           0  read in
    real space projection operators read in
  non local Contribution for L=           0  read in
    real space projection operators read in
  non local Contribution for L=           1  read in
    real space projection operators read in
  non local Contribution for L=           1  read in
    real space projection operators read in
    PAW grid and wavefunctions read in
 
   number of l-projection  operators is LMAX  =           4
   number of lm-projection operators is LMMAX =           8
 
  PAW_PBE N 08Apr2002                   :
 energy of atom  1       EATOM= -264.5486
 kinetic energy error for atom=    0.0736 (will be added to EATOM!!)
  PAW_PBE O 08Apr2002                   :
 energy of atom  2       EATOM= -432.3788
 kinetic energy error for atom=    0.1156 (will be added to EATOM!!)
 
 
 POSCAR: CO molecule in a box                    
  positions in cartesian coordinates
  No initial velocities read in
 exchange correlation table for  LEXCH =        8
   RHO(1)=    0.500       N(1)  =     2000
   RHO(2)=  100.500       N(2)  =     4000
 


--------------------------------------------------------------------------------------------------------


 ion  position               nearest neighbor table
   1  0.000  0.000  0.000-
   2  0.000  0.000  0.429-
 
  LATTYP: Found a simple orthorhombic cell.
 ALAT       =    10.1000000000
 B/A-ratio  =     1.0198019802
 C/A-ratio  =     1.0396039604
  
  Lattice vectors:
  
 A1 = (  10.1000000000,   0.0000000000,   0.0000000000)
 A2 = (   0.0000000000,  10.3000000000,   0.0000000000)
 A3 = (   0.0000000000,   0.0000000000,  10.5000000000)


Analysis of symmetry for initial positions (statically):
=====================================================================
 Subroutine PRICEL returns:
 Original cell was already a primitive cell.
 

 Routine SETGRP: Setting up the symmetry group for a 
 simple orthorhombic supercell.


 Subroutine GETGRP returns: Found  4 space group operations
 (whereof  4 operations were pure point group operations)
 out of a pool of  8 trial point group operations.


The static configuration has the point symmetry C_2v.


Analysis of symmetry for dynamics (positions and initial velocities):
=====================================================================
 Subroutine PRICEL returns:
 Original cell was already a primitive cell.
 

 Routine SETGRP: Setting up the symmetry group for a 
 simple orthorhombic supercell.


 Subroutine GETGRP returns: Found  4 space group operations
 (whereof  4 operations were pure point group operations)
 out of a pool of  8 trial point group operations.


The dynamic configuration has the point symmetry C_2v.


Analysis of constrained symmetry for selective dynamics:
=====================================================================
 Subroutine PRICEL returns:
 Original cell was already a primitive cell.
 

 Routine SETGRP: Setting up the symmetry group for a 
 simple orthorhombic supercell.


 Subroutine GETGRP returns: Found  4 space group operations
 (whereof  4 operations were pure point group operations)
 out of a pool of  8 trial point group operations.


The constrained configuration has the point symmetry C_2v.


Analysis of magnetic symmetry:
=====================================================================

 Subroutine MAGSYM returns: Found  4 space group operations
 (whereof  4 operations were pure point group operations)
 out of a pool of  4 trial space group operations
 (whereof  4 operations were pure point group operations)
 and found also     1 'primitive' translations


The magnetic configuration has the point symmetry C_2v.


 irot  :   1
 --------------------------------------------------------------------
 isymop:   1   0   0
           0   1   0
           0   0   1

 gtrans:     0.0000000     0.0000000     0.0000000

 ptrans:     0.0000000     0.0000000     0.0000000
 rotmap:
 (   1->   1)  (   2->   2) 


 irot  :   2
 --------------------------------------------------------------------
 isymop:  -1   0   0
           0  -1   0
           0   0   1

 gtrans:     0.0000000     0.0000000     0.0000000

 ptrans:     0.0000000     0.0000000     0.0000000
 rotmap:
 (   1->   1)  (   2->   2) 


 irot  :   3
 --------------------------------------------------------------------
 isymop:   1   0   0
           0  -1   0
           0   0   1

 gtrans:     0.0000000     0.0000000     0.0000000

 ptrans:     0.0000000     0.0000000     0.0000000
 rotmap:
 (   1->   1)  (   2->   2) 


 irot  :   4
 --------------------------------------------------------------------
 isymop:  -1   0   0
           0   1   0
           0   0   1

 gtrans:     0.0000000     0.0000000     0.0000000

 ptrans:     0.0000000     0.0000000     0.0000000
 rotmap:
 (   1->   1)  (   2->   2) 
 
 
 KPOINTS: Gamma-point only                        

Automatic generation of k-mesh.
Space group operators:
 irot       det(A)        alpha          n_x          n_y          n_z        tau_x        tau_y        tau_z
    1     1.000000     0.000000     1.000000     0.000000     0.000000     0.000000     0.000000     0.000000
    2     1.000000   180.000000     0.000000     0.000000     1.000000     0.000000     0.000000     0.000000
    3    -1.000000   180.000000     0.000000     1.000000     0.000000     0.000000     0.000000     0.000000
    4    -1.000000   180.000000     1.000000     0.000000     0.000000     0.000000     0.000000     0.000000
 
 Subroutine IBZKPT returns following result:
 ===========================================
 
 Found      1 irreducible k-points:
 
 Following reciprocal coordinates:
            Coordinates               Weight
  0.000000  0.000000  0.000000      1.000000
 
 Following cartesian coordinates:
            Coordinates               Weight
  0.000000  0.000000  0.000000      1.000000
 


--------------------------------------------------------------------------------------------------------




 Dimension of arrays:
   k-points           NKPTS =      1   k-points in BZ     NKDIM =      1   number of bands    NBANDS=     10
   number of dos      NEDOS =    301   number of ions     NIONS =      2
   non local maximal  LDIM  =      4   non local SUM 2l+1 LMDIM =      8
   total plane-waves  NPLWV = 135000
   max r-space proj   IRMAX =      1   max aug-charges    IRDMAX=   1803
   dimension x,y,z NGX =    50 NGY =   50 NGZ =   54
   dimension x,y,z NGXF=   100 NGYF=  100 NGZF=  108
   support grid    NGXF=   100 NGYF=  100 NGZF=  108
   ions per type =               1   1
 NGX,Y,Z   is equivalent  to a cutoff of   8.23,  8.07,  8.55 a.u.
 NGXF,Y,Z  is equivalent  to a cutoff of  16.46, 16.14, 17.10 a.u.


 I would recommend the setting:
   dimension x,y,z NGX =    49 NGY =   50 NGZ =   51
 SYSTEM =  Hello World                             
 POSCAR =  CO molecule in a box                    

 Startparameter for this run:
   NWRITE =      2    write-flag & timer
   PREC   = normal    normal or accurate (medium, high low for compatibility)
   ISTART =      0    job   : 0-new  1-cont  2-samecut
   ICHARG =      2    charge: 1-file 2-atom 10-const
   ISPIN  =      2    spin polarized calculation?
   LNONCOLLINEAR =      F non collinear calculations
   LSORBIT =      F    spin-orbit coupling
   INIWAV =      1    electr: 0-lowe 1-rand  2-diag
   LASPH  =      F    aspherical Exc in radial PAW
   METAGGA=      F    non-selfconsistent MetaGGA calc.

 Electronic Relaxation 1
   ENCUT  =  400.0 eV  29.40 Ry    5.42 a.u.  16.47 16.80 17.12*2*pi/ulx,y,z
   ENINI  =  400.0     initial cutoff
   ENAUG  =  627.1 eV  augmentation charge cutoff
   NELM   =     60;   NELMIN=  2; NELMDL=  0     # of ELM steps 
   EDIFF  = 0.1E-03   stopping-criterion for ELM
   LREAL  =      F    real-space projection
   NLSPLINE    = F    spline interpolate recip. space projectors
   LCOMPAT=      F    compatible to vasp.4.4
   GGA_COMPAT  = T    GGA compatible to vasp.4.4-vasp.4.6
   LMAXPAW     = -100 max onsite density
   LMAXMIX     =    2 max onsite mixed and CHGCAR
   VOSKOWN=      0    Vosko Wilk Nusair interpolation
   ROPT   =    0.00000   0.00000
 Ionic relaxation
   EDIFFG = -.1E-01   stopping-criterion for IOM
   NSW    =      0    number of steps for IOM
   NBLOCK =      1;   KBLOCK =      1    inner block; outer block 
   IBRION =     -1    ionic relax: 0-MD 1-quasi-New 2-CG
   NFREE  =      0    steps in history (QN), initial steepest desc. (CG)
   ISIF   =      2    stress and relaxation
   IWAVPR =     10    prediction:  0-non 1-charg 2-wave 3-comb
   ISYM   =      2    0-nonsym 1-usesym 2-fastsym
   LCORR  =      T    Harris-Foulkes like correction to forces

   POTIM  = 0.5000    time-step for ionic-motion
   TEIN   =    0.0    initial temperature
   TEBEG  =    0.0;   TEEND  =   0.0 temperature during run
   SMASS  =  -3.00    Nose mass-parameter (am)
   estimated Nose-frequenzy (Omega)   =  0.10E-29 period in steps =****** mass=  -0.233E-26a.u.
   SCALEE = 1.0000    scale energy and forces
   NPACO  =    256;   APACO  = 16.0  distance and # of slots for P.C.
   PSTRESS=    0.0 pullay stress

  Mass of Ions in am
   POMASS =  14.00 16.00
  Ionic Valenz
   ZVAL   =   5.00  6.00
  Atomic Wigner-Seitz radii
   RWIGS  =  -1.00 -1.00
  virtual crystal weights 
   VCA    =   1.00  1.00
   NELECT =      11.0000    total number of electrons
   NUPDOWN=      -1.0000    fix difference up-down

 DOS related values:
   EMIN   =  10.00;   EMAX   =-10.00  energy-range for DOS
   EFERMI =   0.00
   ISMEAR =     0;   SIGMA  =   0.20  broadening in eV -4-tet -1-fermi 0-gaus

 Electronic relaxation 2 (details)
   IALGO  =     68    algorithm
   LDIAG  =      T    sub-space diagonalisation (order eigenvalues)
   LSUBROT=      T    optimize rotation matrix (better conditioning)
   TURBO    =      0    0=normal 1=particle mesh
   IRESTART =      0    0=no restart 2=restart with 2 vectors
   NREBOOT  =      0    no. of reboots
   NMIN     =      0    reboot dimension
   EREF     =   0.00    reference energy to select bands
   IMIX   =      4    mixing-type and parameters
     AMIX     =   0.40;   BMIX     =  1.00
     AMIX_MAG =   1.60;   BMIX_MAG =  1.00
     AMIN     =   0.10
     WC   =   100.;   INIMIX=   1;  MIXPRE=   1;  MAXMIX= -45

 Intra band minimization:
   WEIMIN = 0.0000     energy-eigenvalue tresh-hold
   EBREAK =  0.25E-05  absolut break condition
   DEPER  =   0.30     relativ break condition  

   TIME   =   0.40     timestep for ELM

  volume/ion in A,a.u.               =     546.16      3685.65
  Fermi-wavevector in a.u.,A,eV,Ry     =   0.353527  0.668070  1.700478  0.124982
  Thomas-Fermi vector in A             =   1.267843
 
 Write flags
   LWAVE  =      F    write WAVECAR
   LCHARG =      F    write CHGCAR
   LVTOT  =      F    write LOCPOT, total local potential
   LVHAR  =      F    write LOCPOT, Hartree potential only
   LELF   =      F    write electronic localiz. function (ELF)
   LORBIT =      0    0 simple, 1 ext, 2 COOP (PROOUT)


 Dipole corrections
   LMONO  =      F    monopole corrections only (constant potential shift)
   LDIPOL =      F    correct potential (dipole corrections)
   IDIPOL =      0    1-x, 2-y, 3-z, 4-all directions 
   EPSILON=  1.0000000 bulk dielectric constant

 Exchange correlation treatment:
   GGA     =    --    GGA type
   LEXCH   =     8    internal setting for exchange type
   VOSKOWN=      0    Vosko Wilk Nusair interpolation
   LHFCALC =     F    Hartree Fock is set to
   LHFONE  =     F    Hartree Fock one center treatment
   AEXX    =    0.0000 exact exchange contribution

 Linear response parameters
   LEPSILON=     F    determine dielectric tensor
   LRPA    =     F    only Hartree local field effects (RPA)
   LNABLA  =     F    use nabla operator in PAW spheres
   LVEL    =     F    velocity operator in full k-point grid
   LINTERFAST=   F  fast interpolation
   KINTER  =     0    interpolate to denser k-point grid
   CSHIFT  =0.1000    complex shift for real part using Kramers Kronig
   OMEGAMAX=  -1.0    maximum frequency
   DEG_THRESHOLD= 0.2000000E-02 threshold for treating states as degnerate
   RTIME   =    0.100 relaxation time in fs

 Orbital magnetization related:
   ORBITALMAG=     F  switch on orbital magnetization
   LCHIMAG   =     F  perturbation theory with respect to B field
   DQ        =  0.001000  dq finite difference perturbation B field



--------------------------------------------------------------------------------------------------------


 Static calculation
 charge density and potential will be updated during run
 spin polarized calculation
 RMM-DIIS sequential band-by-band and
  variant of blocked Davidson during initial phase
 perform sub-space diagonalisation
    before iterative eigenvector-optimisation
 modified Broyden-mixing scheme, WC =      100.0
 initial mixing is a Kerker type mixing with AMIX =  0.4000 and BMIX =      1.0000
 Hartree-type preconditioning will be used
 using additional bands            4
 reciprocal scheme for non local part
 use partial core corrections
 calculate Harris-corrections to forces 
   (improved forces if not selfconsistent)
 use gradient corrections 
 use of overlap-Matrix (Vanderbilt PP)
 Gauss-broadening in eV      SIGMA  =   0.20


--------------------------------------------------------------------------------------------------------


  energy-cutoff  :      400.00
  volume of cell :     1092.32
      direct lattice vectors                 reciprocal lattice vectors
    10.100000000  0.000000000  0.000000000     0.099009901  0.000000000  0.000000000
     0.000000000 10.300000000  0.000000000     0.000000000  0.097087379  0.000000000
     0.000000000  0.000000000 10.500000000     0.000000000  0.000000000  0.095238095

  length of vectors
    10.100000000 10.300000000 10.500000000     0.099009901  0.097087379  0.095238095


 
 k-points in units of 2pi/SCALE and weight: Gamma-point only                        
   0.00000000  0.00000000  0.00000000       1.000
 
 k-points in reciprocal lattice and weights: Gamma-point only                        
   0.00000000  0.00000000  0.00000000       1.000
 
 position of ions in fractional coordinates (direct lattice) 
   0.00000000  0.00000000  0.00000000
   0.00000000  0.00000000  0.42857143
 
 position of ions in cartesian coordinates  (Angst):
   0.00000000  0.00000000  0.00000000
   0.00000000  0.00000000  4.50000000
 


--------------------------------------------------------------------------------------------------------


 k-point  1 :   0.0000 0.0000 0.0000  plane waves:   19819

 maximum and minimum number of plane-waves per node :     19819    19819

 maximum number of plane-waves:     19819
 maximum index in each direction: 
   IXMAX=   16   IYMAX=   16   IZMAX=   17
   IXMIN=  -16   IYMIN=  -16   IZMIN=  -17

 WARNING: aliasing errors must be expected set NGX to  66 to avoid them
 WARNING: aliasing errors must be expected set NGY to  66 to avoid them
 WARNING: aliasing errors must be expected set NGZ to  70 to avoid them
 aliasing errors are usually negligible using standard VASP settings
 and one can safely disregard these warnings

 serial   3D FFT for wavefunctions
 parallel 3D FFT for charge:
    minimum data exchange during FFTs selected (reduces bandwidth)


 total amount of memory used by VASP on root node   175530. kBytes
========================================================================

   base      :      30000. kBytes
   nonl-proj :       3171. kBytes
   fftplans  :      37440. kBytes
   grid      :      98560. kBytes
   one-center:         12. kBytes
   wavefun   :       6347. kBytes
 
 Broyden mixing: mesh for mixing (old mesh)
   NGX = 33   NGY = 33   NGZ = 35
  (NGX  =100   NGY  =100   NGZ  =108)
  gives a total of  38115 points

 initial charge density was supplied:
 charge density of overlapping atoms calculated
 number of electron      11.0000000 magnetization       2.0000000
 keeping initial charge density in first step


--------------------------------------------------------------------------------------------------------


 Maximum index for augmentation-charges         1529 (set IRDMAX)


--------------------------------------------------------------------------------------------------------


 First call to EWALD:  gamma=   0.172
 Maximum number of real-space cells 3x 3x 3
 Maximum number of reciprocal cells 3x 3x 3

 FEWALD executed in parallel
    FEWALD:  cpu time    0.00: real time    0.00


----------------------------------------- Iteration    1(   1)  ---------------------------------------


    POTLOK:  cpu time    1.84: real time    1.84
    SETDIJ:  cpu time    0.02: real time    0.02
     EDDAV:  cpu time    0.58: real time    0.58
       DOS:  cpu time    0.00: real time    0.00
    --------------------------------------------
      LOOP:  cpu time    2.44: real time    2.43

 eigenvalue-minimisations  :    48
 total energy-change (2. order) : 0.7896502E+02  (-0.1784249E+03)
 number of electron      11.0000000 magnetization       2.0000000
 augmentation part       11.0000000 magnetization       2.0000000

 Free energy of the ion-electron system (eV)
  ---------------------------------------------------
  alpha Z        PSCENC =         0.45022818
  Ewald energy   TEWEN  =      -123.73948083
  -1/2 Hartree   DENC   =      -473.49334101
  -exchange  EXHF       =         0.00000000
  -V(xc)+E(xc)   XCENC  =        43.94084730
  PAW double counting   =       551.20228741     -554.18101748
  entropy T*S    EENTRO =        -0.14232608
  eigenvalues    EBANDS =       -61.81037947
  atomic energy  EATOM  =       696.73819845
  ---------------------------------------------------
  free energy    TOTEN  =        78.96501646 eV

  energy without entropy =       79.10734254  energy(sigma->0) =       79.03617950


--------------------------------------------------------------------------------------------------------




----------------------------------------- Iteration    1(   2)  ---------------------------------------


     EDDAV:  cpu time    0.77: real time    0.77
       DOS:  cpu time    0.00: real time    0.00
    --------------------------------------------
      LOOP:  cpu time    0.77: real time    0.77

 eigenvalue-minimisations  :    64
 total energy-change (2. order) :-0.5339499E+02  (-0.5068848E+02)
 number of electron      11.0000000 magnetization       2.0000000
 augmentation part       11.0000000 magnetization       2.0000000

 Free energy of the ion-electron system (eV)
  ---------------------------------------------------
  alpha Z        PSCENC =         0.45022818
  Ewald energy   TEWEN  =      -123.73948083
  -1/2 Hartree   DENC   =      -473.49334101
  -exchange  EXHF       =         0.00000000
  -V(xc)+E(xc)   XCENC  =        43.94084730
  PAW double counting   =       551.20228741     -554.18101748
  entropy T*S    EENTRO =        -0.00420153
  eigenvalues    EBANDS =      -115.34349523
  atomic energy  EATOM  =       696.73819845
  ---------------------------------------------------
  free energy    TOTEN  =        25.57002525 eV

  energy without entropy =       25.57422678  energy(sigma->0) =       25.57212601


--------------------------------------------------------------------------------------------------------




----------------------------------------- Iteration    1(   3)  ---------------------------------------


     EDDAV:  cpu time    0.79: real time    0.79
       DOS:  cpu time    0.00: real time    0.00
    --------------------------------------------
      LOOP:  cpu time    0.79: real time    0.79

 eigenvalue-minimisations  :    64
 total energy-change (2. order) :-0.2683451E+02  (-0.2665595E+02)
 number of electron      11.0000000 magnetization       2.0000000
 augmentation part       11.0000000 magnetization       2.0000000

 Free energy of the ion-electron system (eV)
  ---------------------------------------------------
  alpha Z        PSCENC =         0.45022818
  Ewald energy   TEWEN  =      -123.73948083
  -1/2 Hartree   DENC   =      -473.49334101
  -exchange  EXHF       =         0.00000000
  -V(xc)+E(xc)   XCENC  =        43.94084730
  PAW double counting   =       551.20228741     -554.18101748
  entropy T*S    EENTRO =        -0.15398898
  eigenvalues    EBANDS =      -142.02822071
  atomic energy  EATOM  =       696.73819845
  ---------------------------------------------------
  free energy    TOTEN  =        -1.26448769 eV

  energy without entropy =       -1.11049870  energy(sigma->0) =       -1.18749319


--------------------------------------------------------------------------------------------------------




----------------------------------------- Iteration    1(   4)  ---------------------------------------


     EDDAV:  cpu time    0.53: real time    0.53
       DOS:  cpu time    0.00: real time    0.00
    --------------------------------------------
      LOOP:  cpu time    0.53: real time    0.53

 eigenvalue-minimisations  :    44
 total energy-change (2. order) :-0.2659777E+01  (-0.2002310E+01)
 number of electron      11.0000000 magnetization       2.0000000
 augmentation part       11.0000000 magnetization       2.0000000

 Free energy of the ion-electron system (eV)
  ---------------------------------------------------
  alpha Z        PSCENC =         0.45022818
  Ewald energy   TEWEN  =      -123.73948083
  -1/2 Hartree   DENC   =      -473.49334101
  -exchange  EXHF       =         0.00000000
  -V(xc)+E(xc)   XCENC  =        43.94084730
  PAW double counting   =       551.20228741     -554.18101748
  entropy T*S    EENTRO =        -0.15586077
  eigenvalues    EBANDS =      -144.68612557
  atomic energy  EATOM  =       696.73819845
  ---------------------------------------------------
  free energy    TOTEN  =        -3.92426433 eV

  energy without entropy =       -3.76840356  energy(sigma->0) =       -3.84633394


--------------------------------------------------------------------------------------------------------




----------------------------------------- Iteration    1(   5)  ---------------------------------------


     EDDAV:  cpu time    0.65: real time    0.65
       DOS:  cpu time    0.00: real time    0.00
    CHARGE:  cpu time    0.12: real time    0.13
    MIXING:  cpu time    0.03: real time    0.03
    --------------------------------------------
      LOOP:  cpu time    0.81: real time    0.81

 eigenvalue-minimisations  :    52
 total energy-change (2. order) :-0.1007413E+00  (-0.1006555E+00)
 number of electron      11.0000023 magnetization       1.5793153
 augmentation part        0.7887970 magnetization       0.7149331

 Broyden mixing:
  rms(total) = 0.16800E+01    rms(broyden)= 0.16794E+01
  rms(prec ) = 0.26768E+01
  weight for this iteration     100.00

 Free energy of the ion-electron system (eV)
  ---------------------------------------------------
  alpha Z        PSCENC =         0.45022818
  Ewald energy   TEWEN  =      -123.73948083
  -1/2 Hartree   DENC   =      -473.49334101
  -exchange  EXHF       =         0.00000000
  -V(xc)+E(xc)   XCENC  =        43.94084730
  PAW double counting   =       551.20228741     -554.18101748
  entropy T*S    EENTRO =        -0.15505487
  eigenvalues    EBANDS =      -144.78767281
  atomic energy  EATOM  =       696.73819845
  ---------------------------------------------------
  free energy    TOTEN  =        -4.02500567 eV

  energy without entropy =       -3.86995080  energy(sigma->0) =       -3.94747823


--------------------------------------------------------------------------------------------------------




----------------------------------------- Iteration    1(   6)  ---------------------------------------


    POTLOK:  cpu time    1.68: real time    1.68
    SETDIJ:  cpu time    0.02: real time    0.02
    EDDIAG:  cpu time    0.10: real time    0.10
  RMM-DIIS:  cpu time    0.47: real time    0.47
    ORTHCH:  cpu time    0.01: real time    0.01
       DOS:  cpu time    0.00: real time    0.00
    CHARGE:  cpu time    0.12: real time    0.12
    MIXING:  cpu time    0.03: real time    0.03
    --------------------------------------------
      LOOP:  cpu time    2.43: real time    2.43

 eigenvalue-minimisations  :    45
 total energy-change (2. order) :-0.3655949E+02  (-0.3118961E+01)
 number of electron      11.0000007 magnetization       1.4984143
 augmentation part        0.4545303 magnetization       0.6769576

 Broyden mixing:
  rms(total) = 0.35617E+01    rms(broyden)= 0.35596E+01
  rms(prec ) = 0.53926E+01
  weight for this iteration     100.00

 eigenvalues of (default mixing * dielectric matrix)
  average eigenvalue GAMMA=   0.3307
  0.3307

 Free energy of the ion-electron system (eV)
  ---------------------------------------------------
  alpha Z        PSCENC =         0.45022818
  Ewald energy   TEWEN  =      -123.73948083
  -1/2 Hartree   DENC   =      -495.22503516
  -exchange  EXHF       =         0.00000000
  -V(xc)+E(xc)   XCENC  =        46.78038150
  PAW double counting   =       598.38202890     -601.68910795
  entropy T*S    EENTRO =        -0.15308634
  eigenvalues    EBANDS =      -162.12861968
  atomic energy  EATOM  =       696.73819845
  ---------------------------------------------------
  free energy    TOTEN  =       -40.58449293 eV

  energy without entropy =      -40.43140660  energy(sigma->0) =      -40.50794977


--------------------------------------------------------------------------------------------------------




----------------------------------------- Iteration    1(   7)  ---------------------------------------


    POTLOK:  cpu time    1.66: real time    1.66
    SETDIJ:  cpu time    0.02: real time    0.02
    EDDIAG:  cpu time    0.10: real time    0.10
  RMM-DIIS:  cpu time    0.49: real time    0.49
    ORTHCH:  cpu time    0.01: real time    0.01
       DOS:  cpu time    0.00: real time    0.00
    CHARGE:  cpu time    0.12: real time    0.12
    MIXING:  cpu time    0.03: real time    0.03
    --------------------------------------------
      LOOP:  cpu time    2.42: real time    2.42

 eigenvalue-minimisations  :    47
 total energy-change (2. order) : 0.3244353E+02  (-0.9224172E+00)
 number of electron      11.0000005 magnetization       1.4588116
 augmentation part        0.3919288 magnetization       0.6483252

 Broyden mixing:
  rms(total) = 0.28173E+01    rms(broyden)= 0.28173E+01
  rms(prec ) = 0.44856E+01
  weight for this iteration     100.00

 eigenvalues of (default mixing * dielectric matrix)
  average eigenvalue GAMMA=   0.4624
  0.4624  0.4624

 Free energy of the ion-electron system (eV)
  ---------------------------------------------------
  alpha Z        PSCENC =         0.45022818
  Ewald energy   TEWEN  =      -123.73948083
  -1/2 Hartree   DENC   =      -482.29679434
  -exchange  EXHF       =         0.00000000
  -V(xc)+E(xc)   XCENC  =        45.08166779
  PAW double counting   =       572.36010877     -575.50245689
  entropy T*S    EENTRO =        -0.15262898
  eigenvalues    EBANDS =      -141.07980686
  atomic energy  EATOM  =       696.73819845
  ---------------------------------------------------
  free energy    TOTEN  =        -8.14096471 eV

  energy without entropy =       -7.98833573  energy(sigma->0) =       -8.06465022


--------------------------------------------------------------------------------------------------------




----------------------------------------- Iteration    1(   8)  ---------------------------------------


    POTLOK:  cpu time    1.66: real time    1.66
    SETDIJ:  cpu time    0.02: real time    0.02
    EDDIAG:  cpu time    0.10: real time    0.10
  RMM-DIIS:  cpu time    0.48: real time    0.48
    ORTHCH:  cpu time    0.00: real time    0.01
       DOS:  cpu time    0.00: real time    0.00
    CHARGE:  cpu time    0.12: real time    0.12
    MIXING:  cpu time    0.03: real time    0.03
    --------------------------------------------
      LOOP:  cpu time    2.42: real time    2.42

 eigenvalue-minimisations  :    46
 total energy-change (2. order) : 0.5585057E+01  (-0.5178792E+00)
 number of electron      11.0000023 magnetization       1.2771923
 augmentation part        0.7807703 magnetization       0.3859734

 Broyden mixing:
  rms(total) = 0.16054E+01    rms(broyden)= 0.16010E+01
  rms(prec ) = 0.26105E+01
  weight for this iteration     100.00

 eigenvalues of (default mixing * dielectric matrix)
  average eigenvalue GAMMA=   0.5254
  0.9044  0.3359  0.3359

 Free energy of the ion-electron system (eV)
  ---------------------------------------------------
  alpha Z        PSCENC =         0.45022818
  Ewald energy   TEWEN  =      -123.73948083
  -1/2 Hartree   DENC   =      -475.59248777
  -exchange  EXHF       =         0.00000000
  -V(xc)+E(xc)   XCENC  =        44.62497829
  PAW double counting   =       562.68602603     -565.69635334
  entropy T*S    EENTRO =        -0.15420566
  eigenvalues    EBANDS =      -141.87281093
  atomic energy  EATOM  =       696.73819845
  ---------------------------------------------------
  free energy    TOTEN  =        -2.55590757 eV

  energy without entropy =       -2.40170191  energy(sigma->0) =       -2.47880474


--------------------------------------------------------------------------------------------------------




----------------------------------------- Iteration    1(   9)  ---------------------------------------


    POTLOK:  cpu time    1.66: real time    1.66
    SETDIJ:  cpu time    0.02: real time    0.02
    EDDIAG:  cpu time    0.10: real time    0.10
  RMM-DIIS:  cpu time    0.48: real time    0.49
    ORTHCH:  cpu time    0.01: real time    0.01
       DOS:  cpu time    0.00: real time    0.00
    CHARGE:  cpu time    0.12: real time    0.12
    MIXING:  cpu time    0.04: real time    0.04
    --------------------------------------------
      LOOP:  cpu time    2.43: real time    2.43

 eigenvalue-minimisations  :    47
 total energy-change (2. order) : 0.7742345E+00  (-0.2151368E-01)
 number of electron      11.0000022 magnetization       1.3090792
 augmentation part        0.7589043 magnetization      -0.0272676

 Broyden mixing:
  rms(total) = 0.13832E+01    rms(broyden)= 0.13830E+01
  rms(prec ) = 0.22363E+01
  weight for this iteration     100.00

 eigenvalues of (default mixing * dielectric matrix)
  average eigenvalue GAMMA=   0.4028
  0.7646  0.3343  0.3343  0.1780

 Free energy of the ion-electron system (eV)
  ---------------------------------------------------
  alpha Z        PSCENC =         0.45022818
  Ewald energy   TEWEN  =      -123.73948083
  -1/2 Hartree   DENC   =      -476.83799130
  -exchange  EXHF       =         0.00000000
  -V(xc)+E(xc)   XCENC  =        44.42466218
  PAW double counting   =       567.36142982     -570.38836410
  entropy T*S    EENTRO =        -0.23140616
  eigenvalues    EBANDS =      -139.55894929
  atomic energy  EATOM  =       696.73819845
  ---------------------------------------------------
  free energy    TOTEN  =        -1.78167304 eV

  energy without entropy =       -1.55026689  energy(sigma->0) =       -1.66596997


--------------------------------------------------------------------------------------------------------




----------------------------------------- Iteration    1(  10)  ---------------------------------------


    POTLOK:  cpu time    1.66: real time    1.66
    SETDIJ:  cpu time    0.02: real time    0.02
    EDDIAG:  cpu time    0.10: real time    0.10
  RMM-DIIS:  cpu time    0.50: real time    0.50
    ORTHCH:  cpu time    0.01: real time    0.01
       DOS:  cpu time    0.00: real time    0.00
    CHARGE:  cpu time    0.12: real time    0.12
    MIXING:  cpu time    0.04: real time    0.04
    --------------------------------------------
      LOOP:  cpu time    2.44: real time    2.44

 eigenvalue-minimisations  :    48
 total energy-change (2. order) :-0.1556587E-01  (-0.3268915E-02)
 number of electron      11.0000022 magnetization       1.1048282
 augmentation part        0.7293995 magnetization      -0.7869240

 Broyden mixing:
  rms(total) = 0.11813E+01    rms(broyden)= 0.11812E+01
  rms(prec ) = 0.18345E+01
  weight for this iteration     100.00

 eigenvalues of (default mixing * dielectric matrix)
  average eigenvalue GAMMA=   0.5238
  1.1590  0.6888  0.3292  0.3292  0.1125

 Free energy of the ion-electron system (eV)
  ---------------------------------------------------
  alpha Z        PSCENC =         0.45022818
  Ewald energy   TEWEN  =      -123.73948083
  -1/2 Hartree   DENC   =      -476.89919445
  -exchange  EXHF       =         0.00000000
  -V(xc)+E(xc)   XCENC  =        44.34975745
  PAW double counting   =       567.46942971     -570.49575135
  entropy T*S    EENTRO =        -0.28086595
  eigenvalues    EBANDS =      -139.38956011
  atomic energy  EATOM  =       696.73819845
  ---------------------------------------------------
  free energy    TOTEN  =        -1.79723891 eV

  energy without entropy =       -1.51637296  energy(sigma->0) =       -1.65680594


--------------------------------------------------------------------------------------------------------




----------------------------------------- Iteration    1(  11)  ---------------------------------------


    POTLOK:  cpu time    1.66: real time    1.66
    SETDIJ:  cpu time    0.02: real time    0.02
    EDDIAG:  cpu time    0.10: real time    0.10
  RMM-DIIS:  cpu time    0.46: real time    0.45
    ORTHCH:  cpu time    0.00: real time    0.01
       DOS:  cpu time    0.00: real time    0.00
    CHARGE:  cpu time    0.12: real time    0.12
    MIXING:  cpu time    0.04: real time    0.04
    --------------------------------------------
      LOOP:  cpu time    2.40: real time    2.40

 eigenvalue-minimisations  :    44
 total energy-change (2. order) : 0.3924930E+00  (-0.6408534E-02)
 number of electron      11.0000019 magnetization       1.0938829
 augmentation part        0.6097915 magnetization      -3.0450304

 Broyden mixing:
  rms(total) = 0.15774E+01    rms(broyden)= 0.15767E+01
  rms(prec ) = 0.15788E+01
  weight for this iteration     100.00

 eigenvalues of (default mixing * dielectric matrix)
  average eigenvalue GAMMA=   0.4723
  0.9852  0.9852  0.3329  0.3329  0.1432  0.0546

 Free energy of the ion-electron system (eV)
  ---------------------------------------------------
  alpha Z        PSCENC =         0.45022818
  Ewald energy   TEWEN  =      -123.73948083
  -1/2 Hartree   DENC   =      -478.08057132
  -exchange  EXHF       =         0.00000000
  -V(xc)+E(xc)   XCENC  =        44.28082874
  PAW double counting   =       571.51088050     -574.55593359
  entropy T*S    EENTRO =        -0.17426060
  eigenvalues    EBANDS =      -137.83463543
  atomic energy  EATOM  =       696.73819845
  ---------------------------------------------------
  free energy    TOTEN  =        -1.40474591 eV

  energy without entropy =       -1.23048530  energy(sigma->0) =       -1.31761560


--------------------------------------------------------------------------------------------------------




----------------------------------------- Iteration    1(  12)  ---------------------------------------


    POTLOK:  cpu time    1.66: real time    1.66
    SETDIJ:  cpu time    0.02: real time    0.02
    EDDIAG:  cpu time    0.10: real time    0.10
  RMM-DIIS:  cpu time    0.46: real time    0.46
    ORTHCH:  cpu time    0.01: real time    0.01
       DOS:  cpu time    0.00: real time    0.00
    CHARGE:  cpu time    0.12: real time    0.12
    MIXING:  cpu time    0.05: real time    0.05
    --------------------------------------------
      LOOP:  cpu time    2.41: real time    2.41

 eigenvalue-minimisations  :    44
 total energy-change (2. order) :-0.2978605E-01  (-0.1007491E-02)
 number of electron      11.0000019 magnetization       1.0872660
 augmentation part        0.6039242 magnetization      -3.1318662

 Broyden mixing:
  rms(total) = 0.16124E+01    rms(broyden)= 0.16124E+01
  rms(prec ) = 0.16178E+01
  weight for this iteration     100.00

 eigenvalues of (default mixing * dielectric matrix)
  average eigenvalue GAMMA=   0.4439
  0.9091  0.9091  0.3357  0.3357  0.1756  0.2212  0.2212

 Free energy of the ion-electron system (eV)
  ---------------------------------------------------
  alpha Z        PSCENC =         0.45022818
  Ewald energy   TEWEN  =      -123.73948083
  -1/2 Hartree   DENC   =      -478.27092475
  -exchange  EXHF       =         0.00000000
  -V(xc)+E(xc)   XCENC  =        44.28468242
  PAW double counting   =       571.99489462     -575.04237540
  entropy T*S    EENTRO =        -0.16033266
  eigenvalues    EBANDS =      -137.68942199
  atomic energy  EATOM  =       696.73819845
  ---------------------------------------------------
  free energy    TOTEN  =        -1.43453195 eV

  energy without entropy =       -1.27419930  energy(sigma->0) =       -1.35436563


--------------------------------------------------------------------------------------------------------




----------------------------------------- Iteration    1(  13)  ---------------------------------------


    POTLOK:  cpu time    1.66: real time    1.66
    SETDIJ:  cpu time    0.02: real time    0.02
    EDDIAG:  cpu time    0.11: real time    0.10
  RMM-DIIS:  cpu time    0.47: real time    0.47
    ORTHCH:  cpu time    0.01: real time    0.01
       DOS:  cpu time    0.00: real time    0.00
    CHARGE:  cpu time    0.12: real time    0.12
    MIXING:  cpu time    0.05: real time    0.05
    --------------------------------------------
      LOOP:  cpu time    2.42: real time    2.43

 eigenvalue-minimisations  :    45
 total energy-change (2. order) : 0.2635815E-01  (-0.1460024E-03)
 number of electron      11.0000019 magnetization       1.2814514
 augmentation part        0.6032504 magnetization      -2.9354336

 Broyden mixing:
  rms(total) = 0.16156E+01    rms(broyden)= 0.16156E+01
  rms(prec ) = 0.16213E+01
  weight for this iteration     100.00

 eigenvalues of (default mixing * dielectric matrix)
  average eigenvalue GAMMA=   0.4468
  0.7300  0.7300  0.5505  0.5505  0.3279  0.3279  0.1887  0.1691

 Free energy of the ion-electron system (eV)
  ---------------------------------------------------
  alpha Z        PSCENC =         0.45022818
  Ewald energy   TEWEN  =      -123.73948083
  -1/2 Hartree   DENC   =      -478.29558189
  -exchange  EXHF       =         0.00000000
  -V(xc)+E(xc)   XCENC  =        44.29651246
  PAW double counting   =       572.06108569     -575.10912276
  entropy T*S    EENTRO =        -0.16119324
  eigenvalues    EBANDS =      -137.64881985
  atomic energy  EATOM  =       696.73819845
  ---------------------------------------------------
  free energy    TOTEN  =        -1.40817380 eV

  energy without entropy =       -1.24698055  energy(sigma->0) =       -1.32757718


--------------------------------------------------------------------------------------------------------




----------------------------------------- Iteration    1(  14)  ---------------------------------------


    POTLOK:  cpu time    1.66: real time    1.66
    SETDIJ:  cpu time    0.02: real time    0.02
    EDDIAG:  cpu time    0.11: real time    0.11
  RMM-DIIS:  cpu time    0.45: real time    0.45
    ORTHCH:  cpu time    0.01: real time    0.01
       DOS:  cpu time    0.00: real time    0.00
    CHARGE:  cpu time    0.12: real time    0.12
    MIXING:  cpu time    0.05: real time    0.05
    --------------------------------------------
      LOOP:  cpu time    2.41: real time    2.41

 eigenvalue-minimisations  :    43
 total energy-change (2. order) :-0.3302303E+00  (-0.1127301E-02)
 number of electron      11.0000018 magnetization       1.5050596
 augmentation part        0.6076774 magnetization      -2.7059321

 Broyden mixing:
  rms(total) = 0.15233E+01    rms(broyden)= 0.15233E+01
  rms(prec ) = 0.15268E+01
  weight for this iteration     100.00

 eigenvalues of (default mixing * dielectric matrix)
  average eigenvalue GAMMA=   0.4501
  0.7419  0.7419  0.6759  0.6759  0.3306  0.3306  0.1919  0.1810  0.1810

 Free energy of the ion-electron system (eV)
  ---------------------------------------------------
  alpha Z        PSCENC =         0.45022818
  Ewald energy   TEWEN  =      -123.73948083
  -1/2 Hartree   DENC   =      -477.98544729
  -exchange  EXHF       =         0.00000000
  -V(xc)+E(xc)   XCENC  =        44.27076188
  PAW double counting   =       571.07006698     -574.11536768
  entropy T*S    EENTRO =        -0.15917216
  eigenvalues    EBANDS =      -138.26819158
  atomic energy  EATOM  =       696.73819845
  ---------------------------------------------------
  free energy    TOTEN  =        -1.73840406 eV

  energy without entropy =       -1.57923190  energy(sigma->0) =       -1.65881798


--------------------------------------------------------------------------------------------------------




----------------------------------------- Iteration    1(  15)  ---------------------------------------


    POTLOK:  cpu time    1.66: real time    1.66
    SETDIJ:  cpu time    0.01: real time    0.02
    EDDIAG:  cpu time    0.10: real time    0.10
  RMM-DIIS:  cpu time    0.50: real time    0.50
    ORTHCH:  cpu time    0.01: real time    0.01
       DOS:  cpu time    0.00: real time    0.00
    CHARGE:  cpu time    0.12: real time    0.12
    MIXING:  cpu time    0.06: real time    0.06
    --------------------------------------------
      LOOP:  cpu time    2.46: real time    2.46

 eigenvalue-minimisations  :    48
 total energy-change (2. order) :-0.4943507E+00  (-0.1806260E-02)
 number of electron      11.0000018 magnetization       1.6529195
 augmentation part        0.6085749 magnetization      -2.5838252

 Broyden mixing:
  rms(total) = 0.14254E+01    rms(broyden)= 0.14254E+01
  rms(prec ) = 0.14299E+01
  weight for this iteration     100.00

 eigenvalues of (default mixing * dielectric matrix)
  average eigenvalue GAMMA=   0.4837
  0.7539  0.7539  0.7493  0.7493  0.1934  0.3539  0.3539  0.3642  0.3642  0.2011

 Free energy of the ion-electron system (eV)
  ---------------------------------------------------
  alpha Z        PSCENC =         0.45022818
  Ewald energy   TEWEN  =      -123.73948083
  -1/2 Hartree   DENC   =      -477.99356829
  -exchange  EXHF       =         0.00000000
  -V(xc)+E(xc)   XCENC  =        44.20931431
  PAW double counting   =       571.42390636     -574.46845312
  entropy T*S    EENTRO =        -0.15341740
  eigenvalues    EBANDS =      -138.69948242
  atomic energy  EATOM  =       696.73819845
  ---------------------------------------------------
  free energy    TOTEN  =        -2.23275477 eV

  energy without entropy =       -2.07933737  energy(sigma->0) =       -2.15604607


--------------------------------------------------------------------------------------------------------




----------------------------------------- Iteration    1(  16)  ---------------------------------------


    POTLOK:  cpu time    1.66: real time    1.66
    SETDIJ:  cpu time    0.02: real time    0.02
    EDDIAG:  cpu time    0.10: real time    0.10
  RMM-DIIS:  cpu time    0.51: real time    0.51
    ORTHCH:  cpu time    0.00: real time    0.01
       DOS:  cpu time    0.00: real time    0.00
    CHARGE:  cpu time    0.12: real time    0.12
    MIXING:  cpu time    0.06: real time    0.06
    --------------------------------------------
      LOOP:  cpu time    2.48: real time    2.48

 eigenvalue-minimisations  :    50
 total energy-change (2. order) :-0.2628720E+00  (-0.7971249E-03)
 number of electron      11.0000018 magnetization       1.6539432
 augmentation part        0.6102276 magnetization      -2.5814743

 Broyden mixing:
  rms(total) = 0.13565E+01    rms(broyden)= 0.13564E+01
  rms(prec ) = 0.13611E+01
  weight for this iteration     100.00

 eigenvalues of (default mixing * dielectric matrix)
  average eigenvalue GAMMA=   0.5355
  0.8586  0.8586  0.7263  0.7263  0.6631  0.6631  0.1937  0.3366  0.3366  0.3114
  0.2159

 Free energy of the ion-electron system (eV)
  ---------------------------------------------------
  alpha Z        PSCENC =         0.45022818
  Ewald energy   TEWEN  =      -123.73948083
  -1/2 Hartree   DENC   =      -478.00763104
  -exchange  EXHF       =         0.00000000
  -V(xc)+E(xc)   XCENC  =        44.21584243
  PAW double counting   =       571.85295565     -574.89416937
  entropy T*S    EENTRO =        -0.15371303
  eigenvalues    EBANDS =      -138.95785723
  atomic energy  EATOM  =       696.73819845
  ---------------------------------------------------
  free energy    TOTEN  =        -2.49562681 eV

  energy without entropy =       -2.34191378  energy(sigma->0) =       -2.41877029


--------------------------------------------------------------------------------------------------------




----------------------------------------- Iteration    1(  17)  ---------------------------------------


    POTLOK:  cpu time    1.66: real time    1.66
    SETDIJ:  cpu time    0.02: real time    0.02
    EDDIAG:  cpu time    0.10: real time    0.10
  RMM-DIIS:  cpu time    0.42: real time    0.42
    ORTHCH:  cpu time    0.01: real time    0.01
       DOS:  cpu time    0.00: real time    0.00
    CHARGE:  cpu time    0.12: real time    0.12
    MIXING:  cpu time    0.06: real time    0.06
    --------------------------------------------
      LOOP:  cpu time    2.40: real time    2.39

 eigenvalue-minimisations  :    40
 total energy-change (2. order) :-0.1879664E-03  (-0.5483374E-04)
 number of electron      11.0000018 magnetization       1.8567674
 augmentation part        0.6106719 magnetization      -2.3782644

 Broyden mixing:
  rms(total) = 0.13571E+01    rms(broyden)= 0.13571E+01
  rms(prec ) = 0.13617E+01
  weight for this iteration     100.00

 eigenvalues of (default mixing * dielectric matrix)
  average eigenvalue GAMMA=   0.6578
  1.3832  1.3832  1.0496  1.0496  0.6606  0.6606  0.3376  0.3376  0.3753  0.2124
  0.1938  0.2496

 Free energy of the ion-electron system (eV)
  ---------------------------------------------------
  alpha Z        PSCENC =         0.45022818
  Ewald energy   TEWEN  =      -123.73948083
  -1/2 Hartree   DENC   =      -478.00322107
  -exchange  EXHF       =         0.00000000
  -V(xc)+E(xc)   XCENC  =        44.21686237
  PAW double counting   =       571.84066188     -574.88167881
  entropy T*S    EENTRO =        -0.15365255
  eigenvalues    EBANDS =      -138.96373240
  atomic energy  EATOM  =       696.73819845
  ---------------------------------------------------
  free energy    TOTEN  =        -2.49581478 eV

  energy without entropy =       -2.34216223  energy(sigma->0) =       -2.41898850


--------------------------------------------------------------------------------------------------------




----------------------------------------- Iteration    1(  18)  ---------------------------------------


    POTLOK:  cpu time    1.66: real time    1.66
    SETDIJ:  cpu time    0.02: real time    0.02
    EDDIAG:  cpu time    0.10: real time    0.10
  RMM-DIIS:  cpu time    0.50: real time    0.50
    ORTHCH:  cpu time    0.01: real time    0.01
       DOS:  cpu time    0.00: real time    0.00
    CHARGE:  cpu time    0.12: real time    0.12
    MIXING:  cpu time    0.07: real time    0.07
    --------------------------------------------
      LOOP:  cpu time    2.48: real time    2.48

 eigenvalue-minimisations  :    49
 total energy-change (2. order) :-0.2892183E+00  (-0.7857198E-03)
 number of electron      11.0000017 magnetization       3.0206294
 augmentation part        0.6133563 magnetization      -1.2117483

 Broyden mixing:
  rms(total) = 0.12710E+01    rms(broyden)= 0.12710E+01
  rms(prec ) = 0.12755E+01
  weight for this iteration     100.00

 eigenvalues of (default mixing * dielectric matrix)
  average eigenvalue GAMMA=   0.7809
  1.8858  1.8858  1.3437  1.3437  0.6950  0.6950  0.3377  0.3377  0.5525  0.3884
  0.2122  0.1937  0.2807

 Free energy of the ion-electron system (eV)
  ---------------------------------------------------
  alpha Z        PSCENC =         0.45022818
  Ewald energy   TEWEN  =      -123.73948083
  -1/2 Hartree   DENC   =      -477.74486263
  -exchange  EXHF       =         0.00000000
  -V(xc)+E(xc)   XCENC  =        44.23593800
  PAW double counting   =       571.43394784     -574.46461150
  entropy T*S    EENTRO =        -0.15408598
  eigenvalues    EBANDS =      -139.54030455
  atomic energy  EATOM  =       696.73819845
  ---------------------------------------------------
  free energy    TOTEN  =        -2.78503304 eV

  energy without entropy =       -2.63094706  energy(sigma->0) =       -2.70799005


--------------------------------------------------------------------------------------------------------




----------------------------------------- Iteration    1(  19)  ---------------------------------------


    POTLOK:  cpu time    1.67: real time    1.67
    SETDIJ:  cpu time    0.01: real time    0.02
    EDDIAG:  cpu time    0.10: real time    0.10
  RMM-DIIS:  cpu time    0.45: real time    0.45
    ORTHCH:  cpu time    0.01: real time    0.01
       DOS:  cpu time    0.00: real time    0.00
    CHARGE:  cpu time    0.11: real time    0.11
    MIXING:  cpu time    0.08: real time    0.08
    --------------------------------------------
      LOOP:  cpu time    2.43: real time    2.43

 eigenvalue-minimisations  :    44
 total energy-change (2. order) :-0.1251694E+01  (-0.2367721E-01)
 number of electron      11.0000014 magnetization       3.6190468
 augmentation part        0.6292157 magnetization      -0.6011143

 Broyden mixing:
  rms(total) = 0.76450E+00    rms(broyden)= 0.76369E+00
  rms(prec ) = 0.76734E+00
  weight for this iteration     100.00

 eigenvalues of (default mixing * dielectric matrix)
  average eigenvalue GAMMA=   0.8634
  2.2118  2.2118  1.6238  1.6238  0.7649  0.7649  0.3377  0.3377  0.5673  0.5673
  0.3883  0.2122  0.1937  0.2822

 Free energy of the ion-electron system (eV)
  ---------------------------------------------------
  alpha Z        PSCENC =         0.45022818
  Ewald energy   TEWEN  =      -123.73948083
  -1/2 Hartree   DENC   =      -476.73602140
  -exchange  EXHF       =         0.00000000
  -V(xc)+E(xc)   XCENC  =        44.61215851
  PAW double counting   =       570.86330972     -573.81171383
  entropy T*S    EENTRO =        -0.14719513
  eigenvalues    EBANDS =      -142.26621053
  atomic energy  EATOM  =       696.73819845
  ---------------------------------------------------
  free energy    TOTEN  =        -4.03672687 eV

  energy without entropy =       -3.88953174  energy(sigma->0) =       -3.96312931


--------------------------------------------------------------------------------------------------------




----------------------------------------- Iteration    1(  20)  ---------------------------------------


    POTLOK:  cpu time    1.76: real time    1.76
    SETDIJ:  cpu time    0.02: real time    0.02
    EDDIAG:  cpu time    0.13: real time    0.13
  RMM-DIIS:  cpu time    0.50: real time    0.50
    ORTHCH:  cpu time    0.00: real time    0.01
       DOS:  cpu time    0.00: real time    0.00
    CHARGE:  cpu time    0.12: real time    0.11
    MIXING:  cpu time    0.08: real time    0.08
    --------------------------------------------
      LOOP:  cpu time    2.61: real time    2.61

 eigenvalue-minimisations  :    45
 total energy-change (2. order) :-0.3767559E+00  (-0.1116882E-01)
 number of electron      11.0000013 magnetization       4.1203064
 augmentation part        0.6386309 magnetization      -0.0940280

 Broyden mixing:
  rms(total) = 0.54738E+00    rms(broyden)= 0.54706E+00
  rms(prec ) = 0.55040E+00
  weight for this iteration     100.00

 eigenvalues of (default mixing * dielectric matrix)
  average eigenvalue GAMMA=   0.8070
  2.1999  2.1999  1.6247  1.6247  0.7645  0.7645  0.3377  0.3377  0.5687  0.5687
  0.3881  0.2122  0.1937  0.2822  0.0372

 Free energy of the ion-electron system (eV)
  ---------------------------------------------------
  alpha Z        PSCENC =         0.45022818
  Ewald energy   TEWEN  =      -123.73948083
  -1/2 Hartree   DENC   =      -475.96891031
  -exchange  EXHF       =         0.00000000
  -V(xc)+E(xc)   XCENC  =        44.87531033
  PAW double counting   =       568.75194068     -571.64870079
  entropy T*S    EENTRO =        -0.14112726
  eigenvalues    EBANDS =      -143.73094120
  atomic energy  EATOM  =       696.73819845
  ---------------------------------------------------
  free energy    TOTEN  =        -4.41348275 eV

  energy without entropy =       -4.27235549  energy(sigma->0) =       -4.34291912


--------------------------------------------------------------------------------------------------------




----------------------------------------- Iteration    1(  21)  ---------------------------------------


    POTLOK:  cpu time    1.80: real time    1.80
    SETDIJ:  cpu time    0.02: real time    0.02
    EDDIAG:  cpu time    0.12: real time    0.13
  RMM-DIIS:  cpu time    0.56: real time    0.56
    ORTHCH:  cpu time    0.01: real time    0.01
       DOS:  cpu time    0.00: real time    0.00
    CHARGE:  cpu time    0.13: real time    0.13
    MIXING:  cpu time    0.10: real time    0.10
    --------------------------------------------
      LOOP:  cpu time    2.74: real time    2.74

 eigenvalue-minimisations  :    45
 total energy-change (2. order) :-0.1770426E+00  (-0.7746298E-02)
 number of electron      11.0000013 magnetization       4.1318704
 augmentation part        0.6477278 magnetization      -0.0005856

 Broyden mixing:
  rms(total) = 0.34725E+00    rms(broyden)= 0.34724E+00
  rms(prec ) = 0.35866E+00
  weight for this iteration     100.00

 eigenvalues of (default mixing * dielectric matrix)
  average eigenvalue GAMMA=   0.9222
  2.6001  2.6001  1.3191  1.3191  1.1675  1.1675  0.8071  0.8071  0.3377  0.3377
  0.6304  0.5863  0.3867  0.2122  0.1937  0.2824

 Free energy of the ion-electron system (eV)
  ---------------------------------------------------
  alpha Z        PSCENC =         0.45022818
  Ewald energy   TEWEN  =      -123.73948083
  -1/2 Hartree   DENC   =      -475.52746632
  -exchange  EXHF       =         0.00000000
  -V(xc)+E(xc)   XCENC  =        45.17100590
  PAW double counting   =       567.37138640     -570.23830510
  entropy T*S    EENTRO =        -0.16342306
  eigenvalues    EBANDS =      -144.65266896
  atomic energy  EATOM  =       696.73819845
  ---------------------------------------------------
  free energy    TOTEN  =        -4.59052536 eV

  energy without entropy =       -4.42710230  energy(sigma->0) =       -4.50881383


--------------------------------------------------------------------------------------------------------




----------------------------------------- Iteration    1(  22)  ---------------------------------------


    POTLOK:  cpu time    1.85: real time    1.85
    SETDIJ:  cpu time    0.02: real time    0.02
    EDDIAG:  cpu time    0.13: real time    0.13
  RMM-DIIS:  cpu time    0.52: real time    0.53
    ORTHCH:  cpu time    0.00: real time    0.01
       DOS:  cpu time    0.00: real time    0.00
    CHARGE:  cpu time    0.12: real time    0.11
    MIXING:  cpu time    0.09: real time    0.09
    --------------------------------------------
      LOOP:  cpu time    2.74: real time    2.74

 eigenvalue-minimisations  :    46
 total energy-change (2. order) :-0.4233645E-02  (-0.1212251E-02)
 number of electron      11.0000014 magnetization       4.1907375
 augmentation part        0.6423504 magnetization      -0.0183961

 Broyden mixing:
  rms(total) = 0.34815E+00    rms(broyden)= 0.34794E+00
  rms(prec ) = 0.35033E+00
  weight for this iteration     100.00

 eigenvalues of (default mixing * dielectric matrix)
  average eigenvalue GAMMA=   0.9988
  2.9458  2.9458  1.5955  1.5955  1.4623  1.0451  1.0451  0.3377  0.3377  0.6994
  0.6617  0.6617  0.5708  0.3867  0.2122  0.1937  0.2824

 Free energy of the ion-electron system (eV)
  ---------------------------------------------------
  alpha Z        PSCENC =         0.45022818
  Ewald energy   TEWEN  =      -123.73948083
  -1/2 Hartree   DENC   =      -476.12233001
  -exchange  EXHF       =         0.00000000
  -V(xc)+E(xc)   XCENC  =        45.20975465
  PAW double counting   =       569.94475013     -572.83289190
  entropy T*S    EENTRO =        -0.15012793
  eigenvalues    EBANDS =      -144.09285973
  atomic energy  EATOM  =       696.73819845
  ---------------------------------------------------
  free energy    TOTEN  =        -4.59475900 eV

  energy without entropy =       -4.44463108  energy(sigma->0) =       -4.51969504


--------------------------------------------------------------------------------------------------------




----------------------------------------- Iteration    1(  23)  ---------------------------------------


    POTLOK:  cpu time    1.82: real time    1.82
    SETDIJ:  cpu time    0.02: real time    0.02
    EDDIAG:  cpu time    0.13: real time    0.13
  RMM-DIIS:  cpu time    0.49: real time    0.49
    ORTHCH:  cpu time    0.00: real time    0.01
       DOS:  cpu time    0.00: real time    0.00
    CHARGE:  cpu time    0.12: real time    0.11
    MIXING:  cpu time    0.10: real time    0.10
    --------------------------------------------
      LOOP:  cpu time    2.68: real time    2.68

 eigenvalue-minimisations  :    45
 total energy-change (2. order) :-0.3415065E-01  (-0.2885958E-02)
 number of electron      11.0000015 magnetization       4.5522706
 augmentation part        0.6387858 magnetization       0.3399386

 Broyden mixing:
  rms(total) = 0.31852E+00    rms(broyden)= 0.31834E+00
  rms(prec ) = 0.31919E+00
  weight for this iteration     100.00

 eigenvalues of (default mixing * dielectric matrix)
  average eigenvalue GAMMA=   1.0836
  3.4724  3.4724  1.7814  1.7814  1.9227  0.9768  0.9768  0.3377  0.3377  0.8180
  0.6807  0.6807  0.5953  0.5953  0.3865  0.2122  0.1937  0.2824

 Free energy of the ion-electron system (eV)
  ---------------------------------------------------
  alpha Z        PSCENC =         0.45022818
  Ewald energy   TEWEN  =      -123.73948083
  -1/2 Hartree   DENC   =      -477.06786556
  -exchange  EXHF       =         0.00000000
  -V(xc)+E(xc)   XCENC  =        45.28547160
  PAW double counting   =       574.37927059     -577.29166588
  entropy T*S    EENTRO =        -0.15184794
  eigenvalues    EBANDS =      -143.23121825
  atomic energy  EATOM  =       696.73819845
  ---------------------------------------------------
  free energy    TOTEN  =        -4.62890965 eV

  energy without entropy =       -4.47706171  energy(sigma->0) =       -4.55298568


--------------------------------------------------------------------------------------------------------




----------------------------------------- Iteration    1(  24)  ---------------------------------------


    POTLOK:  cpu time    1.83: real time    1.84
    SETDIJ:  cpu time    0.02: real time    0.02
    EDDIAG:  cpu time    0.11: real time    0.11
  RMM-DIIS:  cpu time    0.49: real time    0.49
    ORTHCH:  cpu time    0.01: real time    0.01
       DOS:  cpu time    0.00: real time    0.00
    CHARGE:  cpu time    0.11: real time    0.11
    MIXING:  cpu time    0.10: real time    0.10
    --------------------------------------------
      LOOP:  cpu time    2.67: real time    2.68

 eigenvalue-minimisations  :    45
 total energy-change (2. order) :-0.9172689E-01  (-0.1812056E-02)
 number of electron      11.0000016 magnetization       4.8061017
 augmentation part        0.6384778 magnetization       0.5952015

 Broyden mixing:
  rms(total) = 0.17393E+00    rms(broyden)= 0.17356E+00
  rms(prec ) = 0.17488E+00
  weight for this iteration     100.00

 eigenvalues of (default mixing * dielectric matrix)
  average eigenvalue GAMMA=   1.1925
  3.7838  3.7838  1.8714  1.8714  2.1923  2.1923  0.9312  0.9312  0.3377  0.3377
  0.7318  0.7318  0.6545  0.6545  0.5767  0.3866  0.2122  0.1937  0.2824

 Free energy of the ion-electron system (eV)
  ---------------------------------------------------
  alpha Z        PSCENC =         0.45022818
  Ewald energy   TEWEN  =      -123.73948083
  -1/2 Hartree   DENC   =      -477.69377094
  -exchange  EXHF       =         0.00000000
  -V(xc)+E(xc)   XCENC  =        45.56781777
  PAW double counting   =       577.84468138     -580.75604712
  entropy T*S    EENTRO =        -0.15365691
  eigenvalues    EBANDS =      -142.97860651
  atomic energy  EATOM  =       696.73819845
  ---------------------------------------------------
  free energy    TOTEN  =        -4.72063654 eV

  energy without entropy =       -4.56697963  energy(sigma->0) =       -4.64380808


--------------------------------------------------------------------------------------------------------




----------------------------------------- Iteration    1(  25)  ---------------------------------------


    POTLOK:  cpu time    1.84: real time    1.84
    SETDIJ:  cpu time    0.02: real time    0.02
    EDDIAG:  cpu time    0.11: real time    0.11
  RMM-DIIS:  cpu time    0.50: real time    0.49
    ORTHCH:  cpu time    0.01: real time    0.01
       DOS:  cpu time    0.00: real time    0.00
    CHARGE:  cpu time    0.12: real time    0.12
    MIXING:  cpu time    0.13: real time    0.13
    --------------------------------------------
      LOOP:  cpu time    2.71: real time    2.71

 eigenvalue-minimisations  :    46
 total energy-change (2. order) :-0.4511617E-01  (-0.1040757E-02)
 number of electron      11.0000018 magnetization       4.8163601
 augmentation part        0.6396125 magnetization       0.6070688

 Broyden mixing:
  rms(total) = 0.91514E-01    rms(broyden)= 0.90053E-01
  rms(prec ) = 0.92627E-01
  weight for this iteration     100.00

 eigenvalues of (default mixing * dielectric matrix)
  average eigenvalue GAMMA=   1.1581
  3.7857  3.7857  1.8735  1.8735  2.0563  2.0563  1.0595  0.8696  0.8696  0.1937
  0.3377  0.3377  0.6702  0.6702  0.6411  0.5999  0.5999  0.2122  0.3866  0.2824

 Free energy of the ion-electron system (eV)
  ---------------------------------------------------
  alpha Z        PSCENC =         0.45022818
  Ewald energy   TEWEN  =      -123.73948083
  -1/2 Hartree   DENC   =      -477.75557167
  -exchange  EXHF       =         0.00000000
  -V(xc)+E(xc)   XCENC  =        45.73105516
  PAW double counting   =       578.25730787     -581.16244515
  entropy T*S    EENTRO =        -0.15397334
  eigenvalues    EBANDS =      -143.13107136
  atomic energy  EATOM  =       696.73819845
  ---------------------------------------------------
  free energy    TOTEN  =        -4.76575271 eV

  energy without entropy =       -4.61177937  energy(sigma->0) =       -4.68876604


--------------------------------------------------------------------------------------------------------




----------------------------------------- Iteration    1(  26)  ---------------------------------------


    POTLOK:  cpu time    1.82: real time    1.82
    SETDIJ:  cpu time    0.02: real time    0.02
    EDDIAG:  cpu time    0.11: real time    0.11
  RMM-DIIS:  cpu time    0.42: real time    0.42
    ORTHCH:  cpu time    0.01: real time    0.01
       DOS:  cpu time    0.00: real time    0.00
    CHARGE:  cpu time    0.13: real time    0.13
    MIXING:  cpu time    0.14: real time    0.14
    --------------------------------------------
      LOOP:  cpu time    2.65: real time    2.65

 eigenvalue-minimisations  :    38
 total energy-change (2. order) :-0.1257115E-01  (-0.1137457E-03)
 number of electron      11.0000018 magnetization       4.9060243
 augmentation part        0.6399696 magnetization       0.6971163

 Broyden mixing:
  rms(total) = 0.88158E-01    rms(broyden)= 0.88054E-01
  rms(prec ) = 0.90175E-01
  weight for this iteration     100.00

 eigenvalues of (default mixing * dielectric matrix)
  average eigenvalue GAMMA=   1.1560
  3.7564  3.7564  1.8731  1.8731  1.8317  1.8317  1.7507  0.1937  0.2824  0.3377
  0.3377  0.8404  0.8404  0.8248  0.8248  0.2122  0.3866  0.6490  0.6490  0.6524
  0.5719

 Free energy of the ion-electron system (eV)
  ---------------------------------------------------
  alpha Z        PSCENC =         0.45022818
  Ewald energy   TEWEN  =      -123.73948083
  -1/2 Hartree   DENC   =      -477.70290770
  -exchange  EXHF       =         0.00000000
  -V(xc)+E(xc)   XCENC  =        45.72100677
  PAW double counting   =       577.72285958     -580.62487623
  entropy T*S    EENTRO =        -0.15396092
  eigenvalues    EBANDS =      -143.18939116
  atomic energy  EATOM  =       696.73819845
  ---------------------------------------------------
  free energy    TOTEN  =        -4.77832386 eV

  energy without entropy =       -4.62436294  energy(sigma->0) =       -4.70134340


--------------------------------------------------------------------------------------------------------




----------------------------------------- Iteration    1(  27)  ---------------------------------------


    POTLOK:  cpu time    1.80: real time    1.80
    SETDIJ:  cpu time    0.02: real time    0.02
    EDDIAG:  cpu time    0.11: real time    0.11
  RMM-DIIS:  cpu time    0.49: real time    0.49
    ORTHCH:  cpu time    0.01: real time    0.01
       DOS:  cpu time    0.00: real time    0.00
    CHARGE:  cpu time    0.12: real time    0.12
    MIXING:  cpu time    0.14: real time    0.14
    --------------------------------------------
      LOOP:  cpu time    2.69: real time    2.69

 eigenvalue-minimisations  :    42
 total energy-change (2. order) :-0.4305759E-02  (-0.2534531E-03)
 number of electron      11.0000017 magnetization       4.9875379
 augmentation part        0.6414097 magnetization       0.7795856

 Broyden mixing:
  rms(total) = 0.44398E-01    rms(broyden)= 0.44138E-01
  rms(prec ) = 0.45544E-01
  weight for this iteration     100.00

 eigenvalues of (default mixing * dielectric matrix)
  average eigenvalue GAMMA=   1.1955
  3.7048  3.7048  2.5243  2.5243  1.8635  1.8635  1.3564  0.1937  0.2824  0.9926
  0.9926  0.8637  0.8637  0.3377  0.3377  0.2122  0.7171  0.7171  0.3866  0.6516
  0.6051  0.6051

 Free energy of the ion-electron system (eV)
  ---------------------------------------------------
  alpha Z        PSCENC =         0.45022818
  Ewald energy   TEWEN  =      -123.73948083
  -1/2 Hartree   DENC   =      -477.53859546
  -exchange  EXHF       =         0.00000000
  -V(xc)+E(xc)   XCENC  =        45.78330011
  PAW double counting   =       576.52352219     -579.41204493
  entropy T*S    EENTRO =        -0.15424325
  eigenvalues    EBANDS =      -143.43351407
  atomic energy  EATOM  =       696.73819845
  ---------------------------------------------------
  free energy    TOTEN  =        -4.78262962 eV

  energy without entropy =       -4.62838637  energy(sigma->0) =       -4.70550799


--------------------------------------------------------------------------------------------------------




----------------------------------------- Iteration    1(  28)  ---------------------------------------


    POTLOK:  cpu time    1.80: real time    1.80
    SETDIJ:  cpu time    0.02: real time    0.02
    EDDIAG:  cpu time    0.11: real time    0.11
  RMM-DIIS:  cpu time    0.50: real time    0.50
    ORTHCH:  cpu time    0.01: real time    0.01
       DOS:  cpu time    0.00: real time    0.00
    CHARGE:  cpu time    0.13: real time    0.13
    MIXING:  cpu time    0.15: real time    0.15
    --------------------------------------------
      LOOP:  cpu time    2.71: real time    2.71

 eigenvalue-minimisations  :    41
 total energy-change (2. order) :-0.4892094E-02  (-0.1744330E-03)
 number of electron      11.0000017 magnetization       5.0230461
 augmentation part        0.6427233 magnetization       0.8160192

 Broyden mixing:
  rms(total) = 0.14771E-01    rms(broyden)= 0.14449E-01
  rms(prec ) = 0.16333E-01
  weight for this iteration     100.00

 eigenvalues of (default mixing * dielectric matrix)
  average eigenvalue GAMMA=   1.2635
  3.6463  3.6463  3.5245  3.5245  1.8568  1.8568  1.2241  1.1196  1.1196  0.1937
  0.2824  0.8720  0.8720  0.3377  0.3377  0.7700  0.7700  0.2122  0.3866  0.6512
  0.6512  0.6228  0.5818

 Free energy of the ion-electron system (eV)
  ---------------------------------------------------
  alpha Z        PSCENC =         0.45022818
  Ewald energy   TEWEN  =      -123.73948083
  -1/2 Hartree   DENC   =      -477.37762815
  -exchange  EXHF       =         0.00000000
  -V(xc)+E(xc)   XCENC  =        45.83167611
  PAW double counting   =       575.16693747     -578.04474475
  entropy T*S    EENTRO =        -0.15423191
  eigenvalues    EBANDS =      -143.65847628
  atomic energy  EATOM  =       696.73819845
  ---------------------------------------------------
  free energy    TOTEN  =        -4.78752172 eV

  energy without entropy =       -4.63328981  energy(sigma->0) =       -4.71040576


--------------------------------------------------------------------------------------------------------




----------------------------------------- Iteration    1(  29)  ---------------------------------------


    POTLOK:  cpu time    1.80: real time    1.80
    SETDIJ:  cpu time    0.02: real time    0.02
    EDDIAG:  cpu time    0.12: real time    0.12
  RMM-DIIS:  cpu time    0.50: real time    0.50
    ORTHCH:  cpu time    0.01: real time    0.01
       DOS:  cpu time    0.00: real time    0.00
    CHARGE:  cpu time    0.12: real time    0.13
    MIXING:  cpu time    0.16: real time    0.16
    --------------------------------------------
      LOOP:  cpu time    2.74: real time    2.74

 eigenvalue-minimisations  :    39
 total energy-change (2. order) :-0.9871499E-03  (-0.7399619E-04)
 number of electron      11.0000017 magnetization       5.0260889
 augmentation part        0.6434718 magnetization       0.8195668

 Broyden mixing:
  rms(total) = 0.11500E-01    rms(broyden)= 0.11435E-01
  rms(prec ) = 0.14034E-01
  weight for this iteration     100.00

 eigenvalues of (default mixing * dielectric matrix)
  average eigenvalue GAMMA=   1.2602
  3.6358  3.6358  4.1159  3.2557  1.8575  1.8575  1.2084  1.2084  0.1937  0.2824
  0.8772  0.8772  0.3377  0.3377  0.2122  0.9497  0.8578  0.8578  0.3866  0.7276
  0.7276  0.6248  0.6248  0.5959

 Free energy of the ion-electron system (eV)
  ---------------------------------------------------
  alpha Z        PSCENC =         0.45022818
  Ewald energy   TEWEN  =      -123.73948083
  -1/2 Hartree   DENC   =      -477.28239142
  -exchange  EXHF       =         0.00000000
  -V(xc)+E(xc)   XCENC  =        45.85240149
  PAW double counting   =       574.48982749     -577.36238967
  entropy T*S    EENTRO =        -0.15426008
  eigenvalues    EBANDS =      -143.78064248
  atomic energy  EATOM  =       696.73819845
  ---------------------------------------------------
  free energy    TOTEN  =        -4.78850887 eV

  energy without entropy =       -4.63424879  energy(sigma->0) =       -4.71137883


--------------------------------------------------------------------------------------------------------




----------------------------------------- Iteration    1(  30)  ---------------------------------------


    POTLOK:  cpu time    1.81: real time    1.81
    SETDIJ:  cpu time    0.02: real time    0.02
    EDDIAG:  cpu time    0.13: real time    0.13
  RMM-DIIS:  cpu time    0.52: real time    0.51
    ORTHCH:  cpu time    0.00: real time    0.01
       DOS:  cpu time    0.00: real time    0.00
    CHARGE:  cpu time    0.13: real time    0.13
    MIXING:  cpu time    0.17: real time    0.18
    --------------------------------------------
      LOOP:  cpu time    2.78: real time    2.78

 eigenvalue-minimisations  :    41
 total energy-change (2. order) :-0.2774647E-03  (-0.2739304E-04)
 number of electron      11.0000017 magnetization       5.0243043
 augmentation part        0.6438591 magnetization       0.8179126

 Broyden mixing:
  rms(total) = 0.12261E-01    rms(broyden)= 0.12208E-01
  rms(prec ) = 0.15472E-01
  weight for this iteration     100.00

 eigenvalues of (default mixing * dielectric matrix)
  average eigenvalue GAMMA=   1.2788
  4.5454  3.6345  3.6345  2.9327  1.8586  1.8586  1.7959  1.4131  0.1937  0.2824
  0.9849  0.9849  0.8751  0.8751  0.3377  0.3377  0.2122  0.8561  0.7390  0.7390
  0.3866  0.6476  0.6476  0.5897  0.6084

 Free energy of the ion-electron system (eV)
  ---------------------------------------------------
  alpha Z        PSCENC =         0.45022818
  Ewald energy   TEWEN  =      -123.73948083
  -1/2 Hartree   DENC   =      -477.24238457
  -exchange  EXHF       =         0.00000000
  -V(xc)+E(xc)   XCENC  =        45.85456867
  PAW double counting   =       574.24515326     -577.11573594
  entropy T*S    EENTRO =        -0.15425792
  eigenvalues    EBANDS =      -143.82507563
  atomic energy  EATOM  =       696.73819845
  ---------------------------------------------------
  free energy    TOTEN  =        -4.78878633 eV

  energy without entropy =       -4.63452841  energy(sigma->0) =       -4.71165737


--------------------------------------------------------------------------------------------------------




----------------------------------------- Iteration    1(  31)  ---------------------------------------


    POTLOK:  cpu time    1.84: real time    1.84
    SETDIJ:  cpu time    0.02: real time    0.02
    EDDIAG:  cpu time    0.12: real time    0.12
  RMM-DIIS:  cpu time    0.47: real time    0.47
    ORTHCH:  cpu time    0.01: real time    0.01
       DOS:  cpu time    0.00: real time    0.00
    CHARGE:  cpu time    0.12: real time    0.13
    MIXING:  cpu time    0.18: real time    0.18
    --------------------------------------------
      LOOP:  cpu time    2.76: real time    2.76

 eigenvalue-minimisations  :    36
 total energy-change (2. order) :-0.3176811E-03  (-0.1254883E-04)
 number of electron      11.0000017 magnetization       5.0194828
 augmentation part        0.6440166 magnetization       0.8130679

 Broyden mixing:
  rms(total) = 0.12376E-01    rms(broyden)= 0.12365E-01
  rms(prec ) = 0.16024E-01
  weight for this iteration     100.00

 eigenvalues of (default mixing * dielectric matrix)
  average eigenvalue GAMMA=   1.3035
  5.2242  3.6339  3.6339  1.8589  1.8589  2.4564  2.4564  1.6150  0.1937  0.2824
  1.0713  1.0713  0.8968  0.8968  0.3377  0.3377  0.2122  0.7636  0.7636  0.3866
  0.7512  0.7512  0.6250  0.6250  0.6119  0.5754

 Free energy of the ion-electron system (eV)
  ---------------------------------------------------
  alpha Z        PSCENC =         0.45022818
  Ewald energy   TEWEN  =      -123.73948083
  -1/2 Hartree   DENC   =      -477.23108503
  -exchange  EXHF       =         0.00000000
  -V(xc)+E(xc)   XCENC  =        45.85492964
  PAW double counting   =       574.16144127     -577.03047553
  entropy T*S    EENTRO =        -0.15426224
  eigenvalues    EBANDS =      -143.83859792
  atomic energy  EATOM  =       696.73819845
  ---------------------------------------------------
  free energy    TOTEN  =        -4.78910401 eV

  energy without entropy =       -4.63484177  energy(sigma->0) =       -4.71197289


--------------------------------------------------------------------------------------------------------




----------------------------------------- Iteration    1(  32)  ---------------------------------------


    POTLOK:  cpu time    1.84: real time    1.84
    SETDIJ:  cpu time    0.02: real time    0.02
    EDDIAG:  cpu time    0.12: real time    0.13
  RMM-DIIS:  cpu time    0.44: real time    0.43
    ORTHCH:  cpu time    0.01: real time    0.01
       DOS:  cpu time    0.00: real time    0.00
    CHARGE:  cpu time    0.13: real time    0.13
    MIXING:  cpu time    0.19: real time    0.19
    --------------------------------------------
      LOOP:  cpu time    2.75: real time    2.75

 eigenvalue-minimisations  :    33
 total energy-change (2. order) :-0.1402010E-03  (-0.1942874E-05)
 number of electron      11.0000017 magnetization       5.0180930
 augmentation part        0.6440019 magnetization       0.8116255

 Broyden mixing:
  rms(total) = 0.11177E-01    rms(broyden)= 0.11163E-01
  rms(prec ) = 0.15035E-01
  weight for this iteration     100.00

 eigenvalues of (default mixing * dielectric matrix)
  average eigenvalue GAMMA=   1.2978
  5.2347  3.6337  3.6337  2.5869  2.5869  1.8590  1.8590  1.6671  0.1937  0.2824
  1.0777  1.0777  0.8966  0.8966  0.3377  0.3377  0.2122  0.8238  0.8238  0.7530
  0.7530  0.3866  0.6488  0.6488  0.6332  0.5912  0.6050

 Free energy of the ion-electron system (eV)
  ---------------------------------------------------
  alpha Z        PSCENC =         0.45022818
  Ewald energy   TEWEN  =      -123.73948083
  -1/2 Hartree   DENC   =      -477.24419319
  -exchange  EXHF       =         0.00000000
  -V(xc)+E(xc)   XCENC  =        45.85235447
  PAW double counting   =       574.18532093     -577.05445355
  entropy T*S    EENTRO =        -0.15426097
  eigenvalues    EBANDS =      -143.82295769
  atomic energy  EATOM  =       696.73819845
  ---------------------------------------------------
  free energy    TOTEN  =        -4.78924421 eV

  energy without entropy =       -4.63498324  energy(sigma->0) =       -4.71211373


--------------------------------------------------------------------------------------------------------




----------------------------------------- Iteration    1(  33)  ---------------------------------------


    POTLOK:  cpu time    1.82: real time    1.82
    SETDIJ:  cpu time    0.02: real time    0.02
    EDDIAG:  cpu time    0.12: real time    0.13
  RMM-DIIS:  cpu time    0.40: real time    0.40
    ORTHCH:  cpu time    0.01: real time    0.01
       DOS:  cpu time    0.00: real time    0.00
    --------------------------------------------
      LOOP:  cpu time    2.37: real time    2.37

 eigenvalue-minimisations  :    27
 total energy-change (2. order) : 0.3809728E-04  (-0.1873851E-05)
 number of electron      11.0000017 magnetization       5.0180930
 augmentation part        0.6440019 magnetization       0.8116255

 Free energy of the ion-electron system (eV)
  ---------------------------------------------------
  alpha Z        PSCENC =         0.45022818
  Ewald energy   TEWEN  =      -123.73948083
  -1/2 Hartree   DENC   =      -477.25293044
  -exchange  EXHF       =         0.00000000
  -V(xc)+E(xc)   XCENC  =        45.85148526
  PAW double counting   =       574.22863946     -577.09803923
  entropy T*S    EENTRO =        -0.15426144
  eigenvalues    EBANDS =      -143.81304552
  atomic energy  EATOM  =       696.73819845
  ---------------------------------------------------
  free energy    TOTEN  =        -4.78920612 eV

  energy without entropy =       -4.63494468  energy(sigma->0) =       -4.71207540


--------------------------------------------------------------------------------------------------------




 average (electrostatic) potential at core
  the test charge radii are     0.7089  0.7215
  (the norm of the test charge is              1.0000)
       1 -74.9542       2 -83.1474
 
 
 
 E-fermi :  -7.1983     XC(G=0):  -0.7529     alpha+bet : -0.1481


 spin component 1

 k-point   1 :       0.0000    0.0000    0.0000
  band No.  band energies     occupation 
      1     -25.1958      1.00000
      2     -19.6707      1.00000
      3     -10.1924      1.00000
      4     -10.1881      1.00000
      5     -10.1830      1.00000
      6      -8.0757      1.00000
      7      -8.0745      1.00000
      8      -8.0736      1.00000
      9      -0.5887      0.00000
     10       0.8229      0.00000

 spin component 2

 k-point   1 :       0.0000    0.0000    0.0000
  band No.  band energies     occupation 
      1     -21.9261      1.00000
      2     -15.0960      1.00000
      3      -7.1380      0.33489
      4      -7.1373      0.33323
      5      -7.1368      0.33188
      6      -3.9249      0.00000
      7      -3.9216      0.00000
      8      -3.9209      0.00000
      9      -0.2771      0.00000
     10       1.0048      0.00000


--------------------------------------------------------------------------------------------------------


 soft charge-density along one line, spin component           1
         0         1         2         3         4         5         6         7         8         9
 total charge-density along one line
 
 soft charge-density along one line, spin component           2
         0         1         2         3         4         5         6         7         8         9
 total charge-density along one line
 
 pseudopotential strength for first ion, spin component:           1
 14.527  17.457   0.000   0.000   0.000   0.000   0.000   0.000
 17.457  20.979   0.000   0.000   0.000   0.000   0.000   0.000
  0.000   0.000  -7.762  -0.000  -0.000 -10.849  -0.000  -0.000
  0.000   0.000  -0.000  -7.762  -0.000  -0.000 -10.849  -0.000
  0.000   0.000  -0.000  -0.000  -7.762  -0.000  -0.000 -10.849
  0.000   0.000 -10.849  -0.000  -0.000 -14.528  -0.000  -0.000
  0.000   0.000  -0.000 -10.849  -0.000  -0.000 -14.528  -0.000
  0.000   0.000  -0.000  -0.000 -10.849  -0.000  -0.000 -14.528
 pseudopotential strength for first ion, spin component:           2
 13.364  16.035  -0.000   0.000   0.000  -0.000   0.000   0.000
 16.035  19.241  -0.000   0.000   0.000  -0.000   0.000   0.000
 -0.000  -0.000  -7.266   0.000  -0.000 -10.069   0.000  -0.000
  0.000   0.000   0.000  -7.266  -0.000   0.000 -10.069  -0.000
  0.000   0.000  -0.000  -0.000  -7.266  -0.000  -0.000 -10.069
 -0.000  -0.000 -10.069   0.000  -0.000 -13.301   0.000  -0.000
  0.000   0.000   0.000 -10.069  -0.000   0.000 -13.302  -0.000
  0.000   0.000  -0.000  -0.000 -10.069  -0.000  -0.000 -13.302
 total augmentation occupancy for first ion, spin component:           1
  2.657  -0.310   0.000   0.000   0.000   0.000  -0.000   0.000
 -0.310   0.043   0.000  -0.000   0.000   0.000   0.000   0.000
  0.000   0.000   0.947   0.000   0.000   0.030   0.000   0.000
  0.000  -0.000   0.000   0.944   0.000   0.000   0.031   0.000
  0.000   0.000   0.000   0.000   0.946   0.000   0.000   0.030
  0.000   0.000   0.030   0.000   0.000   0.001   0.000   0.000
 -0.000   0.000   0.000   0.031   0.000   0.000   0.001   0.000
  0.000   0.000   0.000   0.000   0.030   0.000   0.000   0.001
 total augmentation occupancy for first ion, spin component:           2
 -0.286   0.167   0.000   0.000   0.000   0.000   0.000   0.000
  0.167  -0.034   0.000  -0.000   0.000   0.000  -0.000   0.000
  0.000   0.000   0.947   0.000   0.000   0.030   0.000   0.000
  0.000  -0.000   0.000   0.943   0.000   0.000   0.031   0.000
  0.000   0.000   0.000   0.000   0.946   0.000   0.000   0.030
  0.000   0.000   0.030   0.000   0.000   0.001   0.000   0.000
  0.000  -0.000   0.000   0.031   0.000   0.000   0.001   0.000
  0.000   0.000   0.000   0.000   0.030   0.000   0.000   0.001


------------------------ aborting loop because EDIFF is reached ----------------------------------------


    CHARGE:  cpu time    0.13: real time    0.13
    FORLOC:  cpu time    0.06: real time    0.06
    FORNL :  cpu time    0.11: real time    0.11
    STRESS:  cpu time    0.37: real time    0.37
    FORCOR:  cpu time    1.87: real time    1.87
    FORHAR:  cpu time    0.22: real time    0.21
    MIXING:  cpu time    0.20: real time    0.20

  FORCE on cell =-STRESS in cart. coord.  units (eV):
  Direction    XX          YY          ZZ          XY          YZ          ZX
  --------------------------------------------------------------------------------------
  Alpha Z     0.45023     0.45023     0.45023
  Ewald     -80.52215   -84.78015    41.56273     0.00000     0.00000    -0.00000
  Hartree   122.42676   118.25042   236.82238    -0.00000    -0.00000    -0.00000
  E(xc)     -49.34837   -49.34815   -49.34870    -0.00000    -0.00000     0.00000
  Local    -190.62775  -182.14508  -427.16236    -0.00000    -0.00000    -0.00000
  n-local   -27.38323   -27.36422   -27.40397     0.00000     0.00000     0.00000
  augment     6.45964     6.45564     6.46663     0.00000    -0.00000    -0.00000
  Kinetic   217.26863   217.24750   217.26432    -0.00000    -0.00000    -0.00000
  Fock        0.00000     0.00000     0.00000     0.00000     0.00000     0.00000
  -------------------------------------------------------------------------------------
  Total      -1.27625    -1.23381    -1.34874     0.00000     0.00000     0.00000
  in kB      -1.87196    -1.80971    -1.97829     0.00000     0.00000     0.00000
  external pressure =       -1.89 kB  Pullay stress =        0.00 kB


 VOLUME and BASIS-vectors are now :
 -----------------------------------------------------------------------------
  energy-cutoff  :      400.00
  volume of cell :     1092.32
      direct lattice vectors                 reciprocal lattice vectors
    10.100000000  0.000000000  0.000000000     0.099009901  0.000000000  0.000000000
     0.000000000 10.300000000  0.000000000     0.000000000  0.097087379  0.000000000
     0.000000000  0.000000000 10.500000000     0.000000000  0.000000000  0.095238095

  length of vectors
    10.100000000 10.300000000 10.500000000     0.099009901  0.097087379  0.095238095


 FORCES acting on ions
    electron-ion (+dipol)            ewald-force                    non-local-force                 convergence-correction
 -----------------------------------------------------------------------------------------------
   0.494E-14 -.124E-14 0.100E+02   0.506E-16 -.109E-16 -.100E+02   0.000E+00 0.000E+00 0.491E-02   0.542E-13 0.108E-12 -.133E-01
   0.405E-14 0.814E-14 -.998E+01   0.214E-16 0.143E-16 0.100E+02   0.000E+00 0.000E+00 -.303E-02   -.239E-12 -.131E-12 -.202E-01
 -----------------------------------------------------------------------------------------------
   0.898E-14 0.690E-14 0.283E-01   0.720E-16 0.346E-17 0.000E+00   0.000E+00 0.000E+00 0.189E-02   -.184E-12 -.225E-13 -.336E-01
 
 
 POSITION                                       TOTAL-FORCE (eV/Angst)
 -----------------------------------------------------------------------------------
      0.00000      0.00000      0.00000         0.000000      0.000000      0.004408
      0.00000      0.00000      4.50000         0.000000      0.000000     -0.004408
 -----------------------------------------------------------------------------------
    total drift:                               -0.000000     -0.000000     -0.003360


--------------------------------------------------------------------------------------------------------



  FREE ENERGIE OF THE ION-ELECTRON SYSTEM (eV)
  ---------------------------------------------------
  free  energy   TOTEN  =        -4.78920612 eV

  energy  without entropy=       -4.63494468  energy(sigma->0) =       -4.71207540
 


--------------------------------------------------------------------------------------------------------


    POTLOK:  cpu time    1.83: real time    1.83


--------------------------------------------------------------------------------------------------------


     LOOP+:  cpu time   81.76: real time   81.82
    4ORBIT:  cpu time    0.00: real time    0.00

 total amount of memory used by VASP on root node   175530. kBytes
========================================================================

   base      :      30000. kBytes
   nonl-proj :       3171. kBytes
   fftplans  :      37440. kBytes
   grid      :      98560. kBytes
   one-center:         12. kBytes
   wavefun   :       6347. kBytes
 
  
  
 General timing and accounting informations for this job:
 ========================================================
  
                  Total CPU time used (sec):       83.352
                            User time (sec):       82.800
                          System time (sec):        0.552
                         Elapsed time (sec):       83.409
  
                   Maximum memory used (kb):      351536.
                   Average memory used (kb):           0.
  
                          Minor page faults:        94537
                          Major page faults:            0
                 Voluntary context switches:            5
