 vasp.5.3.3 18Dez12 (build Sep  7 2015 22:32:56) complex                        
  
 executed on             LinuxIFC date 2002.02.19  00:07:49
 running on    1 total cores
 distrk:  each k-point on    1 cores,    1 groups
 distr:  one band on NCORES_PER_BAND=   1 cores,    1 groups


--------------------------------------------------------------------------------------------------------


 INCAR:
 POTCAR:    PAW_PBE N 08Apr2002                   
 POTCAR:    PAW_PBE O 08Apr2002                   
 POTCAR:    PAW_PBE N 08Apr2002                   
   VRHFIN =N: s2p3                                                              
   LEXCH  = PE                                                                  
   EATOM  =   264.5486 eV,   19.4438 Ry                                         
                                                                                
   TITEL  = PAW_PBE N 08Apr2002                                                 
   LULTRA =        F    use ultrasoft PP ?                                      
   IUNSCR =        1    unscreen: 0-lin 1-nonlin 2-no                           
   RPACOR =    1.200    partial core radius                                     
   POMASS =   14.001; ZVAL   =    5.000    mass and valenz                      
   RCORE  =    1.500    outmost cutoff radius                                   
   RWIGS  =    1.400; RWIGS  =    0.741    wigner-seitz radius (au A)           
   ENMAX  =  400.000; ENMIN  =  300.000 eV                                      
   ICORE  =        2    local potential                                         
   LCOR   =        T    correct aug charges                                     
   LPAW   =        T    paw PP                                                  
   EAUG   =  627.112                                                            
   DEXC   =    0.000                                                            
   RMAX   =    1.529    core radius for proj-oper                               
   RAUG   =    1.300    factor for augmentation sphere                          
   RDEP   =    1.514    radius for radial grids                                 
   RDEPT  =    1.338    core radius for aug-charge                              
                                                                                
   Atomic configuration                                                         
    4 entries                                                                   
     n  l   j            E        occ.                                          
     1  0  0.50      -384.7179   2.0000                                         
     2  0  0.50       -18.5828   2.0000                                         
     2  1  0.50        -7.0898   3.0000                                         
     3  2  1.50        -6.8029   0.0000                                         
   Description                                                                  
     l       E           TYP  RCUT    TYP  RCUT                                 
     0    -18.5828119     23  1.200                                             
     0    -13.5018863     23  1.200                                             
     1     -7.0897853     23  1.500                                             
     1      9.5240782     23  1.500                                             
     2     -6.8029130      7  1.500                                             
  local pseudopotential read in
  partial core-charges read in
  partial kinetic energy density read in
  atomic valenz-charges read in
  non local Contribution for L=           0  read in
    real space projection operators read in
  non local Contribution for L=           0  read in
    real space projection operators read in
  non local Contribution for L=           1  read in
    real space projection operators read in
  non local Contribution for L=           1  read in
    real space projection operators read in
    PAW grid and wavefunctions read in
 
   number of l-projection  operators is LMAX  =           4
   number of lm-projection operators is LMMAX =           8
 
 POTCAR:    PAW_PBE O 08Apr2002                   
   VRHFIN =O: s2p4                                                              
   LEXCH  = PE                                                                  
   EATOM  =   432.3788 eV,   31.7789 Ry                                         
                                                                                
   TITEL  = PAW_PBE O 08Apr2002                                                 
   LULTRA =        F    use ultrasoft PP ?                                      
   IUNSCR =        1    unscreen: 0-lin 1-nonlin 2-no                           
   RPACOR =    1.200    partial core radius                                     
   POMASS =   16.000; ZVAL   =    6.000    mass and valenz                      
   RCORE  =    1.520    outmost cutoff radius                                   
   RWIGS  =    1.550; RWIGS  =    0.820    wigner-seitz radius (au A)           
   ENMAX  =  400.000; ENMIN  =  300.000 eV                                      
   ICORE  =        2    local potential                                         
   LCOR   =        T    correct aug charges                                     
   LPAW   =        T    paw PP                                                  
   EAUG   =  605.392                                                            
   DEXC   =    0.000                                                            
   RMAX   =    1.553    core radius for proj-oper                               
   RAUG   =    1.300    factor for augmentation sphere                          
   RDEP   =    1.550    radius for radial grids                                 
   RDEPT  =    1.329    core radius for aug-charge                              
                                                                                
   Atomic configuration                                                         
    4 entries                                                                   
     n  l   j            E        occ.                                          
     1  0  0.50      -514.6923   2.0000                                         
     2  0  0.50       -23.9615   2.0000                                         
     2  1  0.50        -9.0305   4.0000                                         
     3  2  1.50        -9.5241   0.0000                                         
   Description                                                                  
     l       E           TYP  RCUT    TYP  RCUT                                 
     0    -23.9615318     23  1.200                                             
     0     -9.5240782     23  1.200                                             
     1     -9.0304911     23  1.520                                             
     1      8.1634956     23  1.520                                             
     2     -9.5240782      7  1.500                                             
  local pseudopotential read in
  partial core-charges read in
  partial kinetic energy density read in
  kinetic energy density of atom read in
  atomic valenz-charges read in
  non local Contribution for L=           0  read in
    real space projection operators read in
  non local Contribution for L=           0  read in
    real space projection operators read in
  non local Contribution for L=           1  read in
    real space projection operators read in
  non local Contribution for L=           1  read in
    real space projection operators read in
    PAW grid and wavefunctions read in
 
   number of l-projection  operators is LMAX  =           4
   number of lm-projection operators is LMMAX =           8
 
  PAW_PBE N 08Apr2002                   :
 energy of atom  1       EATOM= -264.5486
 kinetic energy error for atom=    0.0736 (will be added to EATOM!!)
  PAW_PBE O 08Apr2002                   :
 energy of atom  2       EATOM= -432.3788
 kinetic energy error for atom=    0.1156 (will be added to EATOM!!)
 
 
 POSCAR: CO molecule in a box                    
  positions in cartesian coordinates
  No initial velocities read in
 exchange correlation table for  LEXCH =        8
   RHO(1)=    0.500       N(1)  =     2000
   RHO(2)=  100.500       N(2)  =     4000
 


--------------------------------------------------------------------------------------------------------


 ion  position               nearest neighbor table
   1  0.000  0.000  0.000-
   2  0.000  0.000  0.333-
 
  LATTYP: Found a simple orthorhombic cell.
 ALAT       =    10.1000000000
 B/A-ratio  =     1.0198019802
 C/A-ratio  =     1.0396039604
  
  Lattice vectors:
  
 A1 = (  10.1000000000,   0.0000000000,   0.0000000000)
 A2 = (   0.0000000000,  10.3000000000,   0.0000000000)
 A3 = (   0.0000000000,   0.0000000000,  10.5000000000)


Analysis of symmetry for initial positions (statically):
=====================================================================
 Subroutine PRICEL returns:
 Original cell was already a primitive cell.
 

 Routine SETGRP: Setting up the symmetry group for a 
 simple orthorhombic supercell.


 Subroutine GETGRP returns: Found  4 space group operations
 (whereof  4 operations were pure point group operations)
 out of a pool of  8 trial point group operations.


The static configuration has the point symmetry C_2v.


Analysis of symmetry for dynamics (positions and initial velocities):
=====================================================================
 Subroutine PRICEL returns:
 Original cell was already a primitive cell.
 

 Routine SETGRP: Setting up the symmetry group for a 
 simple orthorhombic supercell.


 Subroutine GETGRP returns: Found  4 space group operations
 (whereof  4 operations were pure point group operations)
 out of a pool of  8 trial point group operations.


The dynamic configuration has the point symmetry C_2v.


Analysis of constrained symmetry for selective dynamics:
=====================================================================
 Subroutine PRICEL returns:
 Original cell was already a primitive cell.
 

 Routine SETGRP: Setting up the symmetry group for a 
 simple orthorhombic supercell.


 Subroutine GETGRP returns: Found  4 space group operations
 (whereof  4 operations were pure point group operations)
 out of a pool of  8 trial point group operations.


The constrained configuration has the point symmetry C_2v.


Analysis of magnetic symmetry:
=====================================================================

 Subroutine MAGSYM returns: Found  4 space group operations
 (whereof  4 operations were pure point group operations)
 out of a pool of  4 trial space group operations
 (whereof  4 operations were pure point group operations)
 and found also     1 'primitive' translations


The magnetic configuration has the point symmetry C_2v.


 irot  :   1
 --------------------------------------------------------------------
 isymop:   1   0   0
           0   1   0
           0   0   1

 gtrans:     0.0000000     0.0000000     0.0000000

 ptrans:     0.0000000     0.0000000     0.0000000
 rotmap:
 (   1->   1)  (   2->   2) 


 irot  :   2
 --------------------------------------------------------------------
 isymop:  -1   0   0
           0  -1   0
           0   0   1

 gtrans:     0.0000000     0.0000000     0.0000000

 ptrans:     0.0000000     0.0000000     0.0000000
 rotmap:
 (   1->   1)  (   2->   2) 


 irot  :   3
 --------------------------------------------------------------------
 isymop:   1   0   0
           0  -1   0
           0   0   1

 gtrans:     0.0000000     0.0000000     0.0000000

 ptrans:     0.0000000     0.0000000     0.0000000
 rotmap:
 (   1->   1)  (   2->   2) 


 irot  :   4
 --------------------------------------------------------------------
 isymop:  -1   0   0
           0   1   0
           0   0   1

 gtrans:     0.0000000     0.0000000     0.0000000

 ptrans:     0.0000000     0.0000000     0.0000000
 rotmap:
 (   1->   1)  (   2->   2) 
 
 
 KPOINTS: Gamma-point only                        

Automatic generation of k-mesh.
Space group operators:
 irot       det(A)        alpha          n_x          n_y          n_z        tau_x        tau_y        tau_z
    1     1.000000     0.000000     1.000000     0.000000     0.000000     0.000000     0.000000     0.000000
    2     1.000000   180.000000     0.000000     0.000000     1.000000     0.000000     0.000000     0.000000
    3    -1.000000   180.000000     0.000000     1.000000     0.000000     0.000000     0.000000     0.000000
    4    -1.000000   180.000000     1.000000     0.000000     0.000000     0.000000     0.000000     0.000000
 
 Subroutine IBZKPT returns following result:
 ===========================================
 
 Found      1 irreducible k-points:
 
 Following reciprocal coordinates:
            Coordinates               Weight
  0.000000  0.000000  0.000000      1.000000
 
 Following cartesian coordinates:
            Coordinates               Weight
  0.000000  0.000000  0.000000      1.000000
 


--------------------------------------------------------------------------------------------------------




 Dimension of arrays:
   k-points           NKPTS =      1   k-points in BZ     NKDIM =      1   number of bands    NBANDS=     10
   number of dos      NEDOS =    301   number of ions     NIONS =      2
   non local maximal  LDIM  =      4   non local SUM 2l+1 LMDIM =      8
   total plane-waves  NPLWV = 135000
   max r-space proj   IRMAX =      1   max aug-charges    IRDMAX=   1803
   dimension x,y,z NGX =    50 NGY =   50 NGZ =   54
   dimension x,y,z NGXF=   100 NGYF=  100 NGZF=  108
   support grid    NGXF=   100 NGYF=  100 NGZF=  108
   ions per type =               1   1
 NGX,Y,Z   is equivalent  to a cutoff of   8.23,  8.07,  8.55 a.u.
 NGXF,Y,Z  is equivalent  to a cutoff of  16.46, 16.14, 17.10 a.u.


 I would recommend the setting:
   dimension x,y,z NGX =    49 NGY =   50 NGZ =   51
 SYSTEM =  Hello World                             
 POSCAR =  CO molecule in a box                    

 Startparameter for this run:
   NWRITE =      2    write-flag & timer
   PREC   = normal    normal or accurate (medium, high low for compatibility)
   ISTART =      0    job   : 0-new  1-cont  2-samecut
   ICHARG =      2    charge: 1-file 2-atom 10-const
   ISPIN  =      2    spin polarized calculation?
   LNONCOLLINEAR =      F non collinear calculations
   LSORBIT =      F    spin-orbit coupling
   INIWAV =      1    electr: 0-lowe 1-rand  2-diag
   LASPH  =      F    aspherical Exc in radial PAW
   METAGGA=      F    non-selfconsistent MetaGGA calc.

 Electronic Relaxation 1
   ENCUT  =  400.0 eV  29.40 Ry    5.42 a.u.  16.47 16.80 17.12*2*pi/ulx,y,z
   ENINI  =  400.0     initial cutoff
   ENAUG  =  627.1 eV  augmentation charge cutoff
   NELM   =     60;   NELMIN=  2; NELMDL=  0     # of ELM steps 
   EDIFF  = 0.1E-03   stopping-criterion for ELM
   LREAL  =      F    real-space projection
   NLSPLINE    = F    spline interpolate recip. space projectors
   LCOMPAT=      F    compatible to vasp.4.4
   GGA_COMPAT  = T    GGA compatible to vasp.4.4-vasp.4.6
   LMAXPAW     = -100 max onsite density
   LMAXMIX     =    2 max onsite mixed and CHGCAR
   VOSKOWN=      0    Vosko Wilk Nusair interpolation
   ROPT   =    0.00000   0.00000
 Ionic relaxation
   EDIFFG = -.1E-01   stopping-criterion for IOM
   NSW    =      0    number of steps for IOM
   NBLOCK =      1;   KBLOCK =      1    inner block; outer block 
   IBRION =     -1    ionic relax: 0-MD 1-quasi-New 2-CG
   NFREE  =      0    steps in history (QN), initial steepest desc. (CG)
   ISIF   =      2    stress and relaxation
   IWAVPR =     10    prediction:  0-non 1-charg 2-wave 3-comb
   ISYM   =      2    0-nonsym 1-usesym 2-fastsym
   LCORR  =      T    Harris-Foulkes like correction to forces

   POTIM  = 0.5000    time-step for ionic-motion
   TEIN   =    0.0    initial temperature
   TEBEG  =    0.0;   TEEND  =   0.0 temperature during run
   SMASS  =  -3.00    Nose mass-parameter (am)
   estimated Nose-frequenzy (Omega)   =  0.10E-29 period in steps =****** mass=  -0.233E-26a.u.
   SCALEE = 1.0000    scale energy and forces
   NPACO  =    256;   APACO  = 16.0  distance and # of slots for P.C.
   PSTRESS=    0.0 pullay stress

  Mass of Ions in am
   POMASS =  14.00 16.00
  Ionic Valenz
   ZVAL   =   5.00  6.00
  Atomic Wigner-Seitz radii
   RWIGS  =  -1.00 -1.00
  virtual crystal weights 
   VCA    =   1.00  1.00
   NELECT =      11.0000    total number of electrons
   NUPDOWN=      -1.0000    fix difference up-down

 DOS related values:
   EMIN   =  10.00;   EMAX   =-10.00  energy-range for DOS
   EFERMI =   0.00
   ISMEAR =     0;   SIGMA  =   0.20  broadening in eV -4-tet -1-fermi 0-gaus

 Electronic relaxation 2 (details)
   IALGO  =     68    algorithm
   LDIAG  =      T    sub-space diagonalisation (order eigenvalues)
   LSUBROT=      T    optimize rotation matrix (better conditioning)
   TURBO    =      0    0=normal 1=particle mesh
   IRESTART =      0    0=no restart 2=restart with 2 vectors
   NREBOOT  =      0    no. of reboots
   NMIN     =      0    reboot dimension
   EREF     =   0.00    reference energy to select bands
   IMIX   =      4    mixing-type and parameters
     AMIX     =   0.40;   BMIX     =  1.00
     AMIX_MAG =   1.60;   BMIX_MAG =  1.00
     AMIN     =   0.10
     WC   =   100.;   INIMIX=   1;  MIXPRE=   1;  MAXMIX= -45

 Intra band minimization:
   WEIMIN = 0.0000     energy-eigenvalue tresh-hold
   EBREAK =  0.25E-05  absolut break condition
   DEPER  =   0.30     relativ break condition  

   TIME   =   0.40     timestep for ELM

  volume/ion in A,a.u.               =     546.16      3685.65
  Fermi-wavevector in a.u.,A,eV,Ry     =   0.353527  0.668070  1.700478  0.124982
  Thomas-Fermi vector in A             =   1.267843
 
 Write flags
   LWAVE  =      F    write WAVECAR
   LCHARG =      F    write CHGCAR
   LVTOT  =      F    write LOCPOT, total local potential
   LVHAR  =      F    write LOCPOT, Hartree potential only
   LELF   =      F    write electronic localiz. function (ELF)
   LORBIT =      0    0 simple, 1 ext, 2 COOP (PROOUT)


 Dipole corrections
   LMONO  =      F    monopole corrections only (constant potential shift)
   LDIPOL =      F    correct potential (dipole corrections)
   IDIPOL =      0    1-x, 2-y, 3-z, 4-all directions 
   EPSILON=  1.0000000 bulk dielectric constant

 Exchange correlation treatment:
   GGA     =    --    GGA type
   LEXCH   =     8    internal setting for exchange type
   VOSKOWN=      0    Vosko Wilk Nusair interpolation
   LHFCALC =     F    Hartree Fock is set to
   LHFONE  =     F    Hartree Fock one center treatment
   AEXX    =    0.0000 exact exchange contribution

 Linear response parameters
   LEPSILON=     F    determine dielectric tensor
   LRPA    =     F    only Hartree local field effects (RPA)
   LNABLA  =     F    use nabla operator in PAW spheres
   LVEL    =     F    velocity operator in full k-point grid
   LINTERFAST=   F  fast interpolation
   KINTER  =     0    interpolate to denser k-point grid
   CSHIFT  =0.1000    complex shift for real part using Kramers Kronig
   OMEGAMAX=  -1.0    maximum frequency
   DEG_THRESHOLD= 0.2000000E-02 threshold for treating states as degnerate
   RTIME   =    0.100 relaxation time in fs

 Orbital magnetization related:
   ORBITALMAG=     F  switch on orbital magnetization
   LCHIMAG   =     F  perturbation theory with respect to B field
   DQ        =  0.001000  dq finite difference perturbation B field



--------------------------------------------------------------------------------------------------------


 Static calculation
 charge density and potential will be updated during run
 spin polarized calculation
 RMM-DIIS sequential band-by-band and
  variant of blocked Davidson during initial phase
 perform sub-space diagonalisation
    before iterative eigenvector-optimisation
 modified Broyden-mixing scheme, WC =      100.0
 initial mixing is a Kerker type mixing with AMIX =  0.4000 and BMIX =      1.0000
 Hartree-type preconditioning will be used
 using additional bands            4
 reciprocal scheme for non local part
 use partial core corrections
 calculate Harris-corrections to forces 
   (improved forces if not selfconsistent)
 use gradient corrections 
 use of overlap-Matrix (Vanderbilt PP)
 Gauss-broadening in eV      SIGMA  =   0.20


--------------------------------------------------------------------------------------------------------


  energy-cutoff  :      400.00
  volume of cell :     1092.32
      direct lattice vectors                 reciprocal lattice vectors
    10.100000000  0.000000000  0.000000000     0.099009901  0.000000000  0.000000000
     0.000000000 10.300000000  0.000000000     0.000000000  0.097087379  0.000000000
     0.000000000  0.000000000 10.500000000     0.000000000  0.000000000  0.095238095

  length of vectors
    10.100000000 10.300000000 10.500000000     0.099009901  0.097087379  0.095238095


 
 k-points in units of 2pi/SCALE and weight: Gamma-point only                        
   0.00000000  0.00000000  0.00000000       1.000
 
 k-points in reciprocal lattice and weights: Gamma-point only                        
   0.00000000  0.00000000  0.00000000       1.000
 
 position of ions in fractional coordinates (direct lattice) 
   0.00000000  0.00000000  0.00000000
   0.00000000  0.00000000  0.33333333
 
 position of ions in cartesian coordinates  (Angst):
   0.00000000  0.00000000  0.00000000
   0.00000000  0.00000000  3.50000000
 


--------------------------------------------------------------------------------------------------------


 k-point  1 :   0.0000 0.0000 0.0000  plane waves:   19819

 maximum and minimum number of plane-waves per node :     19819    19819

 maximum number of plane-waves:     19819
 maximum index in each direction: 
   IXMAX=   16   IYMAX=   16   IZMAX=   17
   IXMIN=  -16   IYMIN=  -16   IZMIN=  -17

 WARNING: aliasing errors must be expected set NGX to  66 to avoid them
 WARNING: aliasing errors must be expected set NGY to  66 to avoid them
 WARNING: aliasing errors must be expected set NGZ to  70 to avoid them
 aliasing errors are usually negligible using standard VASP settings
 and one can safely disregard these warnings

 serial   3D FFT for wavefunctions
 parallel 3D FFT for charge:
    minimum data exchange during FFTs selected (reduces bandwidth)


 total amount of memory used by VASP on root node   175530. kBytes
========================================================================

   base      :      30000. kBytes
   nonl-proj :       3171. kBytes
   fftplans  :      37440. kBytes
   grid      :      98560. kBytes
   one-center:         12. kBytes
   wavefun   :       6347. kBytes
 
 Broyden mixing: mesh for mixing (old mesh)
   NGX = 33   NGY = 33   NGZ = 35
  (NGX  =100   NGY  =100   NGZ  =108)
  gives a total of  38115 points

 initial charge density was supplied:
 charge density of overlapping atoms calculated
 number of electron      11.0000000 magnetization       2.0000000
 keeping initial charge density in first step


--------------------------------------------------------------------------------------------------------


 Maximum index for augmentation-charges         1579 (set IRDMAX)


--------------------------------------------------------------------------------------------------------


 First call to EWALD:  gamma=   0.172
 Maximum number of real-space cells 3x 3x 3
 Maximum number of reciprocal cells 3x 3x 3

 FEWALD executed in parallel
    FEWALD:  cpu time    0.00: real time    0.00


----------------------------------------- Iteration    1(   1)  ---------------------------------------


    POTLOK:  cpu time    1.81: real time    1.81
    SETDIJ:  cpu time    0.02: real time    0.02
     EDDAV:  cpu time    0.75: real time    0.75
       DOS:  cpu time    0.00: real time    0.00
    --------------------------------------------
      LOOP:  cpu time    2.58: real time    2.58

 eigenvalue-minimisations  :    56
 total energy-change (2. order) : 0.6691791E+02  (-0.1904647E+03)
 number of electron      11.0000000 magnetization       2.0000000
 augmentation part       11.0000000 magnetization       2.0000000

 Free energy of the ion-electron system (eV)
  ---------------------------------------------------
  alpha Z        PSCENC =         0.45022818
  Ewald energy   TEWEN  =      -105.50132097
  -1/2 Hartree   DENC   =      -491.72343254
  -exchange  EXHF       =         0.00000000
  -V(xc)+E(xc)   XCENC  =        43.94456557
  PAW double counting   =       551.20228741     -554.18101748
  entropy T*S    EENTRO =        -0.09348528
  eigenvalues    EBANDS =       -73.91811736
  atomic energy  EATOM  =       696.73819845
  ---------------------------------------------------
  free energy    TOTEN  =        66.91790597 eV

  energy without entropy =       67.01139126  energy(sigma->0) =       66.96464861


--------------------------------------------------------------------------------------------------------




----------------------------------------- Iteration    1(   2)  ---------------------------------------


     EDDAV:  cpu time    0.87: real time    0.87
       DOS:  cpu time    0.00: real time    0.00
    --------------------------------------------
      LOOP:  cpu time    0.87: real time    0.87

 eigenvalue-minimisations  :    78
 total energy-change (2. order) :-0.5520328E+02  (-0.5494569E+02)
 number of electron      11.0000000 magnetization       2.0000000
 augmentation part       11.0000000 magnetization       2.0000000

 Free energy of the ion-electron system (eV)
  ---------------------------------------------------
  alpha Z        PSCENC =         0.45022818
  Ewald energy   TEWEN  =      -105.50132097
  -1/2 Hartree   DENC   =      -491.72343254
  -exchange  EXHF       =         0.00000000
  -V(xc)+E(xc)   XCENC  =        43.94456557
  PAW double counting   =       551.20228741     -554.18101748
  entropy T*S    EENTRO =        -0.02883003
  eigenvalues    EBANDS =      -129.18605381
  atomic energy  EATOM  =       696.73819845
  ---------------------------------------------------
  free energy    TOTEN  =        11.71462477 eV

  energy without entropy =       11.74345481  energy(sigma->0) =       11.72903979


--------------------------------------------------------------------------------------------------------




----------------------------------------- Iteration    1(   3)  ---------------------------------------


     EDDAV:  cpu time    0.77: real time    0.77
       DOS:  cpu time    0.00: real time    0.00
    --------------------------------------------
      LOOP:  cpu time    0.77: real time    0.77

 eigenvalue-minimisations  :    62
 total energy-change (2. order) :-0.1509206E+02  (-0.1498791E+02)
 number of electron      11.0000000 magnetization       2.0000000
 augmentation part       11.0000000 magnetization       2.0000000

 Free energy of the ion-electron system (eV)
  ---------------------------------------------------
  alpha Z        PSCENC =         0.45022818
  Ewald energy   TEWEN  =      -105.50132097
  -1/2 Hartree   DENC   =      -491.72343254
  -exchange  EXHF       =         0.00000000
  -V(xc)+E(xc)   XCENC  =        43.94456557
  PAW double counting   =       551.20228741     -554.18101748
  entropy T*S    EENTRO =        -0.13574321
  eigenvalues    EBANDS =      -144.17119708
  atomic energy  EATOM  =       696.73819845
  ---------------------------------------------------
  free energy    TOTEN  =        -3.37743167 eV

  energy without entropy =       -3.24168846  energy(sigma->0) =       -3.30956006


--------------------------------------------------------------------------------------------------------




----------------------------------------- Iteration    1(   4)  ---------------------------------------


     EDDAV:  cpu time    0.64: real time    0.64
       DOS:  cpu time    0.00: real time    0.00
    --------------------------------------------
      LOOP:  cpu time    0.64: real time    0.64

 eigenvalue-minimisations  :    48
 total energy-change (2. order) :-0.6668037E+00  (-0.6495840E+00)
 number of electron      11.0000000 magnetization       2.0000000
 augmentation part       11.0000000 magnetization       2.0000000

 Free energy of the ion-electron system (eV)
  ---------------------------------------------------
  alpha Z        PSCENC =         0.45022818
  Ewald energy   TEWEN  =      -105.50132097
  -1/2 Hartree   DENC   =      -491.72343254
  -exchange  EXHF       =         0.00000000
  -V(xc)+E(xc)   XCENC  =        43.94456557
  PAW double counting   =       551.20228741     -554.18101748
  entropy T*S    EENTRO =        -0.15470793
  eigenvalues    EBANDS =      -144.81903608
  atomic energy  EATOM  =       696.73819845
  ---------------------------------------------------
  free energy    TOTEN  =        -4.04423540 eV

  energy without entropy =       -3.88952747  energy(sigma->0) =       -3.96688143


--------------------------------------------------------------------------------------------------------




----------------------------------------- Iteration    1(   5)  ---------------------------------------


     EDDAV:  cpu time    0.70: real time    0.70
       DOS:  cpu time    0.00: real time    0.00
    CHARGE:  cpu time    0.12: real time    0.12
    MIXING:  cpu time    0.03: real time    0.03
    --------------------------------------------
      LOOP:  cpu time    0.84: real time    0.85

 eigenvalue-minimisations  :    56
 total energy-change (2. order) :-0.1268945E-01  (-0.1268597E-01)
 number of electron      11.0000071 magnetization       1.5790079
 augmentation part        0.7859366 magnetization       0.7149067

 Broyden mixing:
  rms(total) = 0.16691E+01    rms(broyden)= 0.16685E+01
  rms(prec ) = 0.26246E+01
  weight for this iteration     100.00

 Free energy of the ion-electron system (eV)
  ---------------------------------------------------
  alpha Z        PSCENC =         0.45022818
  Ewald energy   TEWEN  =      -105.50132097
  -1/2 Hartree   DENC   =      -491.72343254
  -exchange  EXHF       =         0.00000000
  -V(xc)+E(xc)   XCENC  =        43.94456557
  PAW double counting   =       551.20228741     -554.18101748
  entropy T*S    EENTRO =        -0.15470124
  eigenvalues    EBANDS =      -144.83173222
  atomic energy  EATOM  =       696.73819845
  ---------------------------------------------------
  free energy    TOTEN  =        -4.05692484 eV

  energy without entropy =       -3.90222360  energy(sigma->0) =       -3.97957422


--------------------------------------------------------------------------------------------------------




----------------------------------------- Iteration    1(   6)  ---------------------------------------


    POTLOK:  cpu time    1.80: real time    1.79
    SETDIJ:  cpu time    0.02: real time    0.02
    EDDIAG:  cpu time    0.13: real time    0.13
  RMM-DIIS:  cpu time    0.52: real time    0.52
    ORTHCH:  cpu time    0.00: real time    0.01
       DOS:  cpu time    0.00: real time    0.00
    CHARGE:  cpu time    0.13: real time    0.13
    MIXING:  cpu time    0.03: real time    0.03
    --------------------------------------------
      LOOP:  cpu time    2.63: real time    2.63

 eigenvalue-minimisations  :    45
 total energy-change (2. order) :-0.3570337E+02  (-0.3165756E+01)
 number of electron      11.0000001 magnetization       1.4990377
 augmentation part        0.4519873 magnetization       0.6734213

 Broyden mixing:
  rms(total) = 0.35692E+01    rms(broyden)= 0.35670E+01
  rms(prec ) = 0.53624E+01
  weight for this iteration     100.00

 eigenvalues of (default mixing * dielectric matrix)
  average eigenvalue GAMMA=   0.3287
  0.3287

 Free energy of the ion-electron system (eV)
  ---------------------------------------------------
  alpha Z        PSCENC =         0.45022818
  Ewald energy   TEWEN  =      -105.50132097
  -1/2 Hartree   DENC   =      -513.11062558
  -exchange  EXHF       =         0.00000000
  -V(xc)+E(xc)   XCENC  =        46.71216754
  PAW double counting   =       597.91133506     -601.21248750
  entropy T*S    EENTRO =        -0.13938262
  eigenvalues    EBANDS =      -161.60840958
  atomic energy  EATOM  =       696.73819845
  ---------------------------------------------------
  free energy    TOTEN  =       -39.76029703 eV

  energy without entropy =      -39.62091440  energy(sigma->0) =      -39.69060571


--------------------------------------------------------------------------------------------------------




----------------------------------------- Iteration    1(   7)  ---------------------------------------


    POTLOK:  cpu time    1.79: real time    1.79
    SETDIJ:  cpu time    0.02: real time    0.02
    EDDIAG:  cpu time    0.13: real time    0.13
  RMM-DIIS:  cpu time    0.53: real time    0.53
    ORTHCH:  cpu time    0.00: real time    0.01
       DOS:  cpu time    0.00: real time    0.00
    CHARGE:  cpu time    0.12: real time    0.12
    MIXING:  cpu time    0.04: real time    0.03
    --------------------------------------------
      LOOP:  cpu time    2.63: real time    2.63

 eigenvalue-minimisations  :    47
 total energy-change (2. order) : 0.3205345E+02  (-0.9185733E+00)
 number of electron      11.0000001 magnetization       1.4581810
 augmentation part        0.3929515 magnetization       0.6460535

 Broyden mixing:
  rms(total) = 0.28228E+01    rms(broyden)= 0.28227E+01
  rms(prec ) = 0.44405E+01
  weight for this iteration     100.00

 eigenvalues of (default mixing * dielectric matrix)
  average eigenvalue GAMMA=   0.4958
  0.4958  0.4958

 Free energy of the ion-electron system (eV)
  ---------------------------------------------------
  alpha Z        PSCENC =         0.45022818
  Ewald energy   TEWEN  =      -105.50132097
  -1/2 Hartree   DENC   =      -500.28115351
  -exchange  EXHF       =         0.00000000
  -V(xc)+E(xc)   XCENC  =        45.08851668
  PAW double counting   =       572.07766317     -575.21522215
  entropy T*S    EENTRO =        -0.13998962
  eigenvalues    EBANDS =      -140.92376757
  atomic energy  EATOM  =       696.73819845
  ---------------------------------------------------
  free energy    TOTEN  =        -7.70684735 eV

  energy without entropy =       -7.56685773  energy(sigma->0) =       -7.63685254


--------------------------------------------------------------------------------------------------------




----------------------------------------- Iteration    1(   8)  ---------------------------------------


    POTLOK:  cpu time    1.80: real time    1.80
    SETDIJ:  cpu time    0.02: real time    0.02
    EDDIAG:  cpu time    0.13: real time    0.13
  RMM-DIIS:  cpu time    0.49: real time    0.49
    ORTHCH:  cpu time    0.00: real time    0.01
       DOS:  cpu time    0.00: real time    0.00
    CHARGE:  cpu time    0.12: real time    0.12
    MIXING:  cpu time    0.04: real time    0.04
    --------------------------------------------
      LOOP:  cpu time    2.60: real time    2.60

 eigenvalue-minimisations  :    45
 total energy-change (2. order) : 0.4841896E+01  (-0.5291863E+00)
 number of electron      11.0000069 magnetization       1.2798811
 augmentation part        0.7788729 magnetization       0.3883279

 Broyden mixing:
  rms(total) = 0.16007E+01    rms(broyden)= 0.15959E+01
  rms(prec ) = 0.25609E+01
  weight for this iteration     100.00

 eigenvalues of (default mixing * dielectric matrix)
  average eigenvalue GAMMA=   0.5231
  0.8923  0.3385  0.3385

 Free energy of the ion-electron system (eV)
  ---------------------------------------------------
  alpha Z        PSCENC =         0.45022818
  Ewald energy   TEWEN  =      -105.50132097
  -1/2 Hartree   DENC   =      -493.63981803
  -exchange  EXHF       =         0.00000000
  -V(xc)+E(xc)   XCENC  =        44.59827559
  PAW double counting   =       562.56315547     -565.56772802
  entropy T*S    EENTRO =        -0.15219041
  eigenvalues    EBANDS =      -142.35375129
  atomic energy  EATOM  =       696.73819845
  ---------------------------------------------------
  free energy    TOTEN  =        -2.86495103 eV

  energy without entropy =       -2.71276062  energy(sigma->0) =       -2.78885582


--------------------------------------------------------------------------------------------------------




----------------------------------------- Iteration    1(   9)  ---------------------------------------


    POTLOK:  cpu time    1.80: real time    1.80
    SETDIJ:  cpu time    0.02: real time    0.02
    EDDIAG:  cpu time    0.13: real time    0.13
  RMM-DIIS:  cpu time    0.45: real time    0.45
    ORTHCH:  cpu time    0.01: real time    0.01
       DOS:  cpu time    0.00: real time    0.00
    CHARGE:  cpu time    0.12: real time    0.12
    MIXING:  cpu time    0.04: real time    0.04
    --------------------------------------------
      LOOP:  cpu time    2.57: real time    2.57

 eigenvalue-minimisations  :    42
 total energy-change (2. order) : 0.8781514E+00  (-0.2604937E-01)
 number of electron      11.0000062 magnetization       1.2912416
 augmentation part        0.7607980 magnetization       0.1384478

 Broyden mixing:
  rms(total) = 0.14266E+01    rms(broyden)= 0.14262E+01
  rms(prec ) = 0.22778E+01
  weight for this iteration     100.00

 eigenvalues of (default mixing * dielectric matrix)
  average eigenvalue GAMMA=   0.4031
  0.8531  0.3358  0.3358  0.0875

 Free energy of the ion-electron system (eV)
  ---------------------------------------------------
  alpha Z        PSCENC =         0.45022818
  Ewald energy   TEWEN  =      -105.50132097
  -1/2 Hartree   DENC   =      -495.05284630
  -exchange  EXHF       =         0.00000000
  -V(xc)+E(xc)   XCENC  =        44.40473598
  PAW double counting   =       567.43781640     -570.46387055
  entropy T*S    EENTRO =        -0.18840405
  eigenvalues    EBANDS =      -139.81133673
  atomic energy  EATOM  =       696.73819845
  ---------------------------------------------------
  free energy    TOTEN  =        -1.98679959 eV

  energy without entropy =       -1.79839554  energy(sigma->0) =       -1.89259757


--------------------------------------------------------------------------------------------------------




----------------------------------------- Iteration    1(  10)  ---------------------------------------


    POTLOK:  cpu time    1.80: real time    1.80
    SETDIJ:  cpu time    0.02: real time    0.02
    EDDIAG:  cpu time    0.11: real time    0.11
  RMM-DIIS:  cpu time    0.55: real time    0.55
    ORTHCH:  cpu time    0.01: real time    0.01
       DOS:  cpu time    0.00: real time    0.00
    CHARGE:  cpu time    0.12: real time    0.12
    MIXING:  cpu time    0.04: real time    0.04
    --------------------------------------------
      LOOP:  cpu time    2.65: real time    2.65

 eigenvalue-minimisations  :    51
 total energy-change (2. order) : 0.4310383E-01  (-0.3409901E-02)
 number of electron      11.0000057 magnetization       1.1595519
 augmentation part        0.7437888 magnetization      -0.2774926

 Broyden mixing:
  rms(total) = 0.13063E+01    rms(broyden)= 0.13061E+01
  rms(prec ) = 0.20593E+01
  weight for this iteration     100.00

 eigenvalues of (default mixing * dielectric matrix)
  average eigenvalue GAMMA=   0.4640
  1.0424  0.3298  0.3298  0.4892  0.1289

 Free energy of the ion-electron system (eV)
  ---------------------------------------------------
  alpha Z        PSCENC =         0.45022818
  Ewald energy   TEWEN  =      -105.50132097
  -1/2 Hartree   DENC   =      -495.10635381
  -exchange  EXHF       =         0.00000000
  -V(xc)+E(xc)   XCENC  =        44.36068767
  PAW double counting   =       567.60860280     -570.63426113
  entropy T*S    EENTRO =        -0.21422993
  eigenvalues    EBANDS =      -139.64524701
  atomic energy  EATOM  =       696.73819845
  ---------------------------------------------------
  free energy    TOTEN  =        -1.94369576 eV

  energy without entropy =       -1.72946583  energy(sigma->0) =       -1.83658079


--------------------------------------------------------------------------------------------------------




----------------------------------------- Iteration    1(  11)  ---------------------------------------


    POTLOK:  cpu time    1.81: real time    1.81
    SETDIJ:  cpu time    0.02: real time    0.02
    EDDIAG:  cpu time    0.11: real time    0.11
  RMM-DIIS:  cpu time    0.47: real time    0.47
    ORTHCH:  cpu time    0.01: real time    0.01
       DOS:  cpu time    0.00: real time    0.00
    CHARGE:  cpu time    0.12: real time    0.12
    MIXING:  cpu time    0.04: real time    0.04
    --------------------------------------------
      LOOP:  cpu time    2.58: real time    2.59

 eigenvalue-minimisations  :    44
 total energy-change (2. order) : 0.4896845E+00  (-0.2528925E-02)
 number of electron      11.0000044 magnetization       1.1569614
 augmentation part        0.6766014 magnetization      -1.4395586

 Broyden mixing:
  rms(total) = 0.11129E+01    rms(broyden)= 0.11125E+01
  rms(prec ) = 0.13823E+01
  weight for this iteration     100.00

 eigenvalues of (default mixing * dielectric matrix)
  average eigenvalue GAMMA=   0.4061
  0.9886  0.5789  0.3333  0.3333  0.1614  0.0411

 Free energy of the ion-electron system (eV)
  ---------------------------------------------------
  alpha Z        PSCENC =         0.45022818
  Ewald energy   TEWEN  =      -105.50132097
  -1/2 Hartree   DENC   =      -495.84331718
  -exchange  EXHF       =         0.00000000
  -V(xc)+E(xc)   XCENC  =        44.38480018
  PAW double counting   =       569.95978737     -572.99868932
  entropy T*S    EENTRO =        -0.25984876
  eigenvalues    EBANDS =      -138.38384924
  atomic energy  EATOM  =       696.73819845
  ---------------------------------------------------
  free energy    TOTEN  =        -1.45401130 eV

  energy without entropy =       -1.19416254  energy(sigma->0) =       -1.32408692


--------------------------------------------------------------------------------------------------------




----------------------------------------- Iteration    1(  12)  ---------------------------------------


    POTLOK:  cpu time    1.80: real time    1.80
    SETDIJ:  cpu time    0.02: real time    0.02
    EDDIAG:  cpu time    0.11: real time    0.11
  RMM-DIIS:  cpu time    0.47: real time    0.47
    ORTHCH:  cpu time    0.00: real time    0.01
       DOS:  cpu time    0.00: real time    0.00
    CHARGE:  cpu time    0.14: real time    0.13
    MIXING:  cpu time    0.05: real time    0.05
    --------------------------------------------
      LOOP:  cpu time    2.59: real time    2.59

 eigenvalue-minimisations  :    43
 total energy-change (2. order) : 0.7253540E-01  (-0.3611576E-03)
 number of electron      11.0000042 magnetization       1.3958876
 augmentation part        0.6619890 magnetization      -1.4625607

 Broyden mixing:
  rms(total) = 0.11362E+01    rms(broyden)= 0.11362E+01
  rms(prec ) = 0.13092E+01
  weight for this iteration     100.00

 eigenvalues of (default mixing * dielectric matrix)
  average eigenvalue GAMMA=   0.4288
  0.7412  0.7412  0.3324  0.3324  0.3429  0.3429  0.1688

 Free energy of the ion-electron system (eV)
  ---------------------------------------------------
  alpha Z        PSCENC =         0.45022818
  Ewald energy   TEWEN  =      -105.50132097
  -1/2 Hartree   DENC   =      -495.92686158
  -exchange  EXHF       =         0.00000000
  -V(xc)+E(xc)   XCENC  =        44.42551946
  PAW double counting   =       570.14492393     -573.18502863
  entropy T*S    EENTRO =        -0.25699337
  eigenvalues    EBANDS =      -138.27014137
  atomic energy  EATOM  =       696.73819845
  ---------------------------------------------------
  free energy    TOTEN  =        -1.38147590 eV

  energy without entropy =       -1.12448253  energy(sigma->0) =       -1.25297921


--------------------------------------------------------------------------------------------------------




----------------------------------------- Iteration    1(  13)  ---------------------------------------


    POTLOK:  cpu time    1.83: real time    1.83
    SETDIJ:  cpu time    0.02: real time    0.02
    EDDIAG:  cpu time    0.11: real time    0.11
  RMM-DIIS:  cpu time    0.48: real time    0.48
    ORTHCH:  cpu time    0.01: real time    0.01
       DOS:  cpu time    0.00: real time    0.00
    CHARGE:  cpu time    0.12: real time    0.12
    MIXING:  cpu time    0.05: real time    0.05
    --------------------------------------------
      LOOP:  cpu time    2.62: real time    2.63

 eigenvalue-minimisations  :    45
 total energy-change (2. order) :-0.6563222E+00  (-0.5432567E-02)
 number of electron      11.0000045 magnetization       1.2145750
 augmentation part        0.6605119 magnetization      -1.9199280

 Broyden mixing:
  rms(total) = 0.10964E+01    rms(broyden)= 0.10961E+01
  rms(prec ) = 0.12348E+01
  weight for this iteration     100.00

 eigenvalues of (default mixing * dielectric matrix)
  average eigenvalue GAMMA=   0.4566
  1.1952  0.7187  0.3230  0.3230  0.3343  0.3343  0.2530  0.1719

 Free energy of the ion-electron system (eV)
  ---------------------------------------------------
  alpha Z        PSCENC =         0.45022818
  Ewald energy   TEWEN  =      -105.50132097
  -1/2 Hartree   DENC   =      -495.21557270
  -exchange  EXHF       =         0.00000000
  -V(xc)+E(xc)   XCENC  =        44.23329023
  PAW double counting   =       568.58992723     -571.61197831
  entropy T*S    EENTRO =        -0.25735856
  eigenvalues    EBANDS =      -139.46321169
  atomic energy  EATOM  =       696.73819845
  ---------------------------------------------------
  free energy    TOTEN  =        -2.03779813 eV

  energy without entropy =       -1.78043958  energy(sigma->0) =       -1.90911886


--------------------------------------------------------------------------------------------------------




----------------------------------------- Iteration    1(  14)  ---------------------------------------


    POTLOK:  cpu time    1.76: real time    1.76
    SETDIJ:  cpu time    0.02: real time    0.02
    EDDIAG:  cpu time    0.11: real time    0.11
  RMM-DIIS:  cpu time    0.50: real time    0.50
    ORTHCH:  cpu time    0.01: real time    0.01
       DOS:  cpu time    0.00: real time    0.00
    CHARGE:  cpu time    0.14: real time    0.14
    MIXING:  cpu time    0.06: real time    0.06
    --------------------------------------------
      LOOP:  cpu time    2.59: real time    2.60

 eigenvalue-minimisations  :    45
 total energy-change (2. order) : 0.3582217E+00  (-0.4490108E-02)
 number of electron      11.0000042 magnetization       1.2719057
 augmentation part        0.6075467 magnetization      -2.8414247

 Broyden mixing:
  rms(total) = 0.15261E+01    rms(broyden)= 0.15257E+01
  rms(prec ) = 0.15318E+01
  weight for this iteration     100.00

 eigenvalues of (default mixing * dielectric matrix)
  average eigenvalue GAMMA=   0.4420
  1.2234  0.6736  0.3779  0.3779  0.3343  0.3343  0.3058  0.1997  0.1510

 Free energy of the ion-electron system (eV)
  ---------------------------------------------------
  alpha Z        PSCENC =         0.45022818
  Ewald energy   TEWEN  =      -105.50132097
  -1/2 Hartree   DENC   =      -496.59522205
  -exchange  EXHF       =         0.00000000
  -V(xc)+E(xc)   XCENC  =        44.30618353
  PAW double counting   =       572.48202424     -575.53094237
  entropy T*S    EENTRO =        -0.16310758
  eigenvalues    EBANDS =      -137.86561789
  atomic energy  EATOM  =       696.73819845
  ---------------------------------------------------
  free energy    TOTEN  =        -1.67957646 eV

  energy without entropy =       -1.51646888  energy(sigma->0) =       -1.59802267


--------------------------------------------------------------------------------------------------------




----------------------------------------- Iteration    1(  15)  ---------------------------------------


    POTLOK:  cpu time    1.76: real time    1.77
    SETDIJ:  cpu time    0.02: real time    0.02
    EDDIAG:  cpu time    0.12: real time    0.13
  RMM-DIIS:  cpu time    0.54: real time    0.54
    ORTHCH:  cpu time    0.01: real time    0.01
       DOS:  cpu time    0.00: real time    0.00
    CHARGE:  cpu time    0.14: real time    0.13
    MIXING:  cpu time    0.06: real time    0.07
    --------------------------------------------
      LOOP:  cpu time    2.66: real time    2.66

 eigenvalue-minimisations  :    44
 total energy-change (2. order) :-0.1591917E+00  (-0.5280297E-03)
 number of electron      11.0000042 magnetization       1.2384172
 augmentation part        0.6092604 magnetization      -2.8715801

 Broyden mixing:
  rms(total) = 0.14954E+01    rms(broyden)= 0.14954E+01
  rms(prec ) = 0.15007E+01
  weight for this iteration     100.00

 eigenvalues of (default mixing * dielectric matrix)
  average eigenvalue GAMMA=   0.4640
  1.1904  0.6666  0.3520  0.3343  0.3343  0.4368  0.4368  0.3612  0.3612  0.1663

 Free energy of the ion-electron system (eV)
  ---------------------------------------------------
  alpha Z        PSCENC =         0.45022818
  Ewald energy   TEWEN  =      -105.50132097
  -1/2 Hartree   DENC   =      -496.41163343
  -exchange  EXHF       =         0.00000000
  -V(xc)+E(xc)   XCENC  =        44.25670857
  PAW double counting   =       572.04852838     -575.09379908
  entropy T*S    EENTRO =        -0.16236929
  eigenvalues    EBANDS =      -138.16330893
  atomic energy  EATOM  =       696.73819845
  ---------------------------------------------------
  free energy    TOTEN  =        -1.83876814 eV

  energy without entropy =       -1.67639885  energy(sigma->0) =       -1.75758349


--------------------------------------------------------------------------------------------------------




----------------------------------------- Iteration    1(  16)  ---------------------------------------


    POTLOK:  cpu time    1.78: real time    1.78
    SETDIJ:  cpu time    0.02: real time    0.02
    EDDIAG:  cpu time    0.13: real time    0.13
  RMM-DIIS:  cpu time    0.54: real time    0.54
    ORTHCH:  cpu time    0.01: real time    0.01
       DOS:  cpu time    0.00: real time    0.00
    CHARGE:  cpu time    0.14: real time    0.14
    MIXING:  cpu time    0.07: real time    0.07
    --------------------------------------------
      LOOP:  cpu time    2.69: real time    2.69

 eigenvalue-minimisations  :    45
 total energy-change (2. order) : 0.4312370E-01  (-0.1214073E-03)
 number of electron      11.0000042 magnetization       1.3526363
 augmentation part        0.6062630 magnetization      -2.7984306

 Broyden mixing:
  rms(total) = 0.15281E+01    rms(broyden)= 0.15281E+01
  rms(prec ) = 0.15349E+01
  weight for this iteration     100.00

 eigenvalues of (default mixing * dielectric matrix)
  average eigenvalue GAMMA=   0.4955
  1.1528  0.6228  0.6228  0.4499  0.4499  0.6690  0.3346  0.3346  0.3246  0.3246
  0.1657

 Free energy of the ion-electron system (eV)
  ---------------------------------------------------
  alpha Z        PSCENC =         0.45022818
  Ewald energy   TEWEN  =      -105.50132097
  -1/2 Hartree   DENC   =      -496.53974989
  -exchange  EXHF       =         0.00000000
  -V(xc)+E(xc)   XCENC  =        44.26006246
  PAW double counting   =       572.27769545     -575.32546654
  entropy T*S    EENTRO =        -0.15573927
  eigenvalues    EBANDS =      -137.99955231
  atomic energy  EATOM  =       696.73819845
  ---------------------------------------------------
  free energy    TOTEN  =        -1.79564444 eV

  energy without entropy =       -1.63990517  energy(sigma->0) =       -1.71777481


--------------------------------------------------------------------------------------------------------




----------------------------------------- Iteration    1(  17)  ---------------------------------------


    POTLOK:  cpu time    1.80: real time    1.80
    SETDIJ:  cpu time    0.02: real time    0.02
    EDDIAG:  cpu time    0.12: real time    0.12
  RMM-DIIS:  cpu time    0.56: real time    0.56
    ORTHCH:  cpu time    0.00: real time    0.01
       DOS:  cpu time    0.00: real time    0.00
    CHARGE:  cpu time    0.13: real time    0.14
    MIXING:  cpu time    0.08: real time    0.08
    --------------------------------------------
      LOOP:  cpu time    2.72: real time    2.72

 eigenvalue-minimisations  :    46
 total energy-change (2. order) :-0.8249127E-01  (-0.5794951E-03)
 number of electron      11.0000043 magnetization       1.3025614
 augmentation part        0.6109671 magnetization      -2.7548218

 Broyden mixing:
  rms(total) = 0.14468E+01    rms(broyden)= 0.14467E+01
  rms(prec ) = 0.14504E+01
  weight for this iteration     100.00

 eigenvalues of (default mixing * dielectric matrix)
  average eigenvalue GAMMA=   0.5328
  1.2051  0.7462  0.7462  0.5059  0.5059  0.6780  0.1656  0.3348  0.3348  0.3995
  0.3995  0.3719

 Free energy of the ion-electron system (eV)
  ---------------------------------------------------
  alpha Z        PSCENC =         0.45022818
  Ewald energy   TEWEN  =      -105.50132097
  -1/2 Hartree   DENC   =      -496.39554050
  -exchange  EXHF       =         0.00000000
  -V(xc)+E(xc)   XCENC  =        44.30366455
  PAW double counting   =       572.18549214     -575.23231871
  entropy T*S    EENTRO =        -0.18185091
  eigenvalues    EBANDS =      -138.24468794
  atomic energy  EATOM  =       696.73819845
  ---------------------------------------------------
  free energy    TOTEN  =        -1.87813571 eV

  energy without entropy =       -1.69628480  energy(sigma->0) =       -1.78721026


--------------------------------------------------------------------------------------------------------




----------------------------------------- Iteration    1(  18)  ---------------------------------------


    POTLOK:  cpu time    1.80: real time    1.80
    SETDIJ:  cpu time    0.02: real time    0.02
    EDDIAG:  cpu time    0.12: real time    0.12
  RMM-DIIS:  cpu time    0.53: real time    0.53
    ORTHCH:  cpu time    0.01: real time    0.01
       DOS:  cpu time    0.00: real time    0.00
    CHARGE:  cpu time    0.13: real time    0.14
    MIXING:  cpu time    0.08: real time    0.08
    --------------------------------------------
      LOOP:  cpu time    2.70: real time    2.70

 eigenvalue-minimisations  :    43
 total energy-change (2. order) : 0.5402717E-01  (-0.1498495E-03)
 number of electron      11.0000042 magnetization       1.2960757
 augmentation part        0.6067354 magnetization      -2.8231023

 Broyden mixing:
  rms(total) = 0.14970E+01    rms(broyden)= 0.14970E+01
  rms(prec ) = 0.15021E+01
  weight for this iteration     100.00

 eigenvalues of (default mixing * dielectric matrix)
  average eigenvalue GAMMA=   0.5459
  1.2097  0.8801  0.8801  0.4931  0.4931  0.6877  0.3347  0.3347  0.4423  0.4423
  0.3870  0.1656  0.3463

 Free energy of the ion-electron system (eV)
  ---------------------------------------------------
  alpha Z        PSCENC =         0.45022818
  Ewald energy   TEWEN  =      -105.50132097
  -1/2 Hartree   DENC   =      -496.57491925
  -exchange  EXHF       =         0.00000000
  -V(xc)+E(xc)   XCENC  =        44.29764566
  PAW double counting   =       572.58843146     -575.63871767
  entropy T*S    EENTRO =        -0.17145830
  eigenvalues    EBANDS =      -138.01219610
  atomic energy  EATOM  =       696.73819845
  ---------------------------------------------------
  free energy    TOTEN  =        -1.82410854 eV

  energy without entropy =       -1.65265024  energy(sigma->0) =       -1.73837939


--------------------------------------------------------------------------------------------------------




----------------------------------------- Iteration    1(  19)  ---------------------------------------


    POTLOK:  cpu time    1.81: real time    1.81
    SETDIJ:  cpu time    0.02: real time    0.02
    EDDIAG:  cpu time    0.12: real time    0.12
  RMM-DIIS:  cpu time    0.41: real time    0.41
    ORTHCH:  cpu time    0.01: real time    0.01
       DOS:  cpu time    0.00: real time    0.00
    CHARGE:  cpu time    0.14: real time    0.14
    MIXING:  cpu time    0.09: real time    0.09
    --------------------------------------------
      LOOP:  cpu time    2.60: real time    2.60

 eigenvalue-minimisations  :    32
 total energy-change (2. order) : 0.5382679E-02  (-0.1466915E-04)
 number of electron      11.0000042 magnetization       1.3600903
 augmentation part        0.6062622 magnetization      -2.7630055

 Broyden mixing:
  rms(total) = 0.15012E+01    rms(broyden)= 0.15012E+01
  rms(prec ) = 0.15066E+01
  weight for this iteration     100.00

 eigenvalues of (default mixing * dielectric matrix)
  average eigenvalue GAMMA=   0.7020
  1.5337  1.5337  1.4593  0.5183  0.5183  0.6562  0.6562  0.6790  0.3347  0.3347
  0.4740  0.4740  0.4907  0.1656

 Free energy of the ion-electron system (eV)
  ---------------------------------------------------
  alpha Z        PSCENC =         0.45022818
  Ewald energy   TEWEN  =      -105.50132097
  -1/2 Hartree   DENC   =      -496.59511588
  -exchange  EXHF       =         0.00000000
  -V(xc)+E(xc)   XCENC  =        44.29609623
  PAW double counting   =       572.63243491     -575.68308452
  entropy T*S    EENTRO =        -0.17083796
  eigenvalues    EBANDS =      -137.98532430
  atomic energy  EATOM  =       696.73819845
  ---------------------------------------------------
  free energy    TOTEN  =        -1.81872586 eV

  energy without entropy =       -1.64788790  energy(sigma->0) =       -1.73330688


--------------------------------------------------------------------------------------------------------




----------------------------------------- Iteration    1(  20)  ---------------------------------------


    POTLOK:  cpu time    1.76: real time    1.76
    SETDIJ:  cpu time    0.02: real time    0.02
    EDDIAG:  cpu time    0.12: real time    0.12
  RMM-DIIS:  cpu time    0.54: real time    0.55
    ORTHCH:  cpu time    0.01: real time    0.01
       DOS:  cpu time    0.00: real time    0.00
    CHARGE:  cpu time    0.14: real time    0.13
    MIXING:  cpu time    0.09: real time    0.09
    --------------------------------------------
      LOOP:  cpu time    2.68: real time    2.68

 eigenvalue-minimisations  :    46
 total energy-change (2. order) :-0.1438461E+00  (-0.2813538E-03)
 number of electron      11.0000043 magnetization       1.3056718
 augmentation part        0.6076419 magnetization      -2.8492995

 Broyden mixing:
  rms(total) = 0.14883E+01    rms(broyden)= 0.14883E+01
  rms(prec ) = 0.14932E+01
  weight for this iteration     100.00

 eigenvalues of (default mixing * dielectric matrix)
  average eigenvalue GAMMA=   0.8544
  2.7693  2.7693  1.3026  0.5194  0.5194  0.4801  0.7909  0.7909  0.1656  0.3347
  0.3347  0.6395  0.4903  0.4903  0.4194

 Free energy of the ion-electron system (eV)
  ---------------------------------------------------
  alpha Z        PSCENC =         0.45022818
  Ewald energy   TEWEN  =      -105.50132097
  -1/2 Hartree   DENC   =      -496.24516059
  -exchange  EXHF       =         0.00000000
  -V(xc)+E(xc)   XCENC  =        44.23474731
  PAW double counting   =       571.89489952     -574.93867668
  entropy T*S    EENTRO =        -0.16414294
  eigenvalues    EBANDS =      -138.43134419
  atomic energy  EATOM  =       696.73819845
  ---------------------------------------------------
  free energy    TOTEN  =        -1.96257191 eV

  energy without entropy =       -1.79842898  energy(sigma->0) =       -1.88050044


--------------------------------------------------------------------------------------------------------




----------------------------------------- Iteration    1(  21)  ---------------------------------------


    POTLOK:  cpu time    1.84: real time    1.84
    SETDIJ:  cpu time    0.02: real time    0.02
    EDDIAG:  cpu time    0.11: real time    0.11
  RMM-DIIS:  cpu time    0.54: real time    0.55
    ORTHCH:  cpu time    0.01: real time    0.01
       DOS:  cpu time    0.00: real time    0.00
    CHARGE:  cpu time    0.12: real time    0.12
    MIXING:  cpu time    0.08: real time    0.09
    --------------------------------------------
      LOOP:  cpu time    2.73: real time    2.73

 eigenvalue-minimisations  :    45
 total energy-change (2. order) : 0.3306887E-01  (-0.4553196E-03)
 number of electron      11.0000042 magnetization       1.3136779
 augmentation part        0.6064955 magnetization      -2.8851910

 Broyden mixing:
  rms(total) = 0.15279E+01    rms(broyden)= 0.15278E+01
  rms(prec ) = 0.15347E+01
  weight for this iteration     100.00

 eigenvalues of (default mixing * dielectric matrix)
  average eigenvalue GAMMA=   0.8306
  2.8811  2.8811  1.3661  0.5195  0.5195  0.4799  0.7903  0.7903  0.1656  0.6528
  0.3347  0.3347  0.4593  0.4593  0.3276  0.3276

 Free energy of the ion-electron system (eV)
  ---------------------------------------------------
  alpha Z        PSCENC =         0.45022818
  Ewald energy   TEWEN  =      -105.50132097
  -1/2 Hartree   DENC   =      -496.24086068
  -exchange  EXHF       =         0.00000000
  -V(xc)+E(xc)   XCENC  =        44.20338881
  PAW double counting   =       571.66469314     -574.70755829
  entropy T*S    EENTRO =        -0.14541930
  eigenvalues    EBANDS =      -138.39085237
  atomic energy  EATOM  =       696.73819845
  ---------------------------------------------------
  free energy    TOTEN  =        -1.92950304 eV

  energy without entropy =       -1.78408374  energy(sigma->0) =       -1.85679339


--------------------------------------------------------------------------------------------------------




----------------------------------------- Iteration    1(  22)  ---------------------------------------


    POTLOK:  cpu time    1.79: real time    1.79
    SETDIJ:  cpu time    0.02: real time    0.02
    EDDIAG:  cpu time    0.12: real time    0.13
  RMM-DIIS:  cpu time    0.54: real time    0.54
    ORTHCH:  cpu time    0.01: real time    0.01
       DOS:  cpu time    0.00: real time    0.00
    CHARGE:  cpu time    0.12: real time    0.12
    MIXING:  cpu time    0.09: real time    0.09
    --------------------------------------------
      LOOP:  cpu time    2.69: real time    2.69

 eigenvalue-minimisations  :    46
 total energy-change (2. order) : 0.1281108E-03  (-0.1911553E-03)
 number of electron      11.0000043 magnetization       1.2952804
 augmentation part        0.6052530 magnetization      -2.9234968

 Broyden mixing:
  rms(total) = 0.15343E+01    rms(broyden)= 0.15343E+01
  rms(prec ) = 0.15421E+01
  weight for this iteration     100.00

 eigenvalues of (default mixing * dielectric matrix)
  average eigenvalue GAMMA=   0.7903
  2.8475  2.8475  1.3663  0.5194  0.5194  0.7929  0.7929  0.4804  0.6541  0.3347
  0.3347  0.1656  0.4508  0.4508  0.3759  0.3759  0.1268

 Free energy of the ion-electron system (eV)
  ---------------------------------------------------
  alpha Z        PSCENC =         0.45022818
  Ewald energy   TEWEN  =      -105.50132097
  -1/2 Hartree   DENC   =      -496.38881747
  -exchange  EXHF       =         0.00000000
  -V(xc)+E(xc)   XCENC  =        44.22825185
  PAW double counting   =       571.97967272     -575.02434710
  entropy T*S    EENTRO =        -0.13960363
  eigenvalues    EBANDS =      -138.27163695
  atomic energy  EATOM  =       696.73819845
  ---------------------------------------------------
  free energy    TOTEN  =        -1.92937493 eV

  energy without entropy =       -1.78977130  energy(sigma->0) =       -1.85957312


--------------------------------------------------------------------------------------------------------




----------------------------------------- Iteration    1(  23)  ---------------------------------------


    POTLOK:  cpu time    1.79: real time    1.79
    SETDIJ:  cpu time    0.02: real time    0.02
    EDDIAG:  cpu time    0.13: real time    0.13
  RMM-DIIS:  cpu time    0.50: real time    0.50
    ORTHCH:  cpu time    0.01: real time    0.01
       DOS:  cpu time    0.00: real time    0.00
    CHARGE:  cpu time    0.12: real time    0.12
    MIXING:  cpu time    0.10: real time    0.10
    --------------------------------------------
      LOOP:  cpu time    2.67: real time    2.67

 eigenvalue-minimisations  :    45
 total energy-change (2. order) : 0.5416493E-01  (-0.9152369E-03)
 number of electron      11.0000042 magnetization       1.4731808
 augmentation part        0.6082344 magnetization      -2.6632855

 Broyden mixing:
  rms(total) = 0.15032E+01    rms(broyden)= 0.15032E+01
  rms(prec ) = 0.15082E+01
  weight for this iteration     100.00

 eigenvalues of (default mixing * dielectric matrix)
  average eigenvalue GAMMA=   0.8467
  2.7976  2.7976  1.1918  1.3918  0.5192  0.5192  0.4774  0.7962  0.7962  0.1656
  0.3347  0.3347  0.6504  0.5164  0.5164  0.4989  0.4989  0.4368

 Free energy of the ion-electron system (eV)
  ---------------------------------------------------
  alpha Z        PSCENC =         0.45022818
  Ewald energy   TEWEN  =      -105.50132097
  -1/2 Hartree   DENC   =      -496.10827133
  -exchange  EXHF       =         0.00000000
  -V(xc)+E(xc)   XCENC  =        44.21088662
  PAW double counting   =       571.50488223     -574.54598425
  entropy T*S    EENTRO =        -0.16614061
  eigenvalues    EBANDS =      -138.45768832
  atomic energy  EATOM  =       696.73819845
  ---------------------------------------------------
  free energy    TOTEN  =        -1.87521000 eV

  energy without entropy =       -1.70906939  energy(sigma->0) =       -1.79213969


--------------------------------------------------------------------------------------------------------




----------------------------------------- Iteration    1(  24)  ---------------------------------------


    POTLOK:  cpu time    1.80: real time    1.80
    SETDIJ:  cpu time    0.02: real time    0.02
    EDDIAG:  cpu time    0.12: real time    0.13
  RMM-DIIS:  cpu time    0.47: real time    0.47
    ORTHCH:  cpu time    0.01: real time    0.01
       DOS:  cpu time    0.00: real time    0.00
    CHARGE:  cpu time    0.12: real time    0.12
    MIXING:  cpu time    0.10: real time    0.10
    --------------------------------------------
      LOOP:  cpu time    2.64: real time    2.64

 eigenvalue-minimisations  :    43
 total energy-change (2. order) :-0.2655037E+00  (-0.4200445E-02)
 number of electron      11.0000042 magnetization       2.3296928
 augmentation part        0.6082096 magnetization      -1.8877564

 Broyden mixing:
  rms(total) = 0.14707E+01    rms(broyden)= 0.14705E+01
  rms(prec ) = 0.14771E+01
  weight for this iteration     100.00

 eigenvalues of (default mixing * dielectric matrix)
  average eigenvalue GAMMA=   0.9056
  2.6891  2.6891  1.6123  1.6123  1.3734  0.5193  0.5193  0.4779  0.8285  0.8285
  0.1656  0.3347  0.3347  0.5316  0.5316  0.6330  0.5329  0.5329  0.4605

 Free energy of the ion-electron system (eV)
  ---------------------------------------------------
  alpha Z        PSCENC =         0.45022818
  Ewald energy   TEWEN  =      -105.50132097
  -1/2 Hartree   DENC   =      -496.45349751
  -exchange  EXHF       =         0.00000000
  -V(xc)+E(xc)   XCENC  =        44.27277427
  PAW double counting   =       571.96471519     -575.00701154
  entropy T*S    EENTRO =        -0.12351252
  eigenvalues    EBANDS =      -138.48128721
  atomic energy  EATOM  =       696.73819845
  ---------------------------------------------------
  free energy    TOTEN  =        -2.14071367 eV

  energy without entropy =       -2.01720115  energy(sigma->0) =       -2.07895741


--------------------------------------------------------------------------------------------------------




----------------------------------------- Iteration    1(  25)  ---------------------------------------


    POTLOK:  cpu time    1.81: real time    1.81
    SETDIJ:  cpu time    0.02: real time    0.02
    EDDIAG:  cpu time    0.11: real time    0.11
  RMM-DIIS:  cpu time    0.46: real time    0.46
    ORTHCH:  cpu time    0.01: real time    0.01
       DOS:  cpu time    0.00: real time    0.00
    CHARGE:  cpu time    0.11: real time    0.11
    MIXING:  cpu time    0.11: real time    0.11
    --------------------------------------------
      LOOP:  cpu time    2.62: real time    2.63

 eigenvalue-minimisations  :    43
 total energy-change (2. order) :-0.1240827E+01  (-0.1904748E-01)
 number of electron      11.0000061 magnetization       2.2851530
 augmentation part        0.6956328 magnetization      -0.3483933

 Broyden mixing:
  rms(total) = 0.88007E+00    rms(broyden)= 0.87886E+00
  rms(prec ) = 0.12881E+01
  weight for this iteration     100.00

 eigenvalues of (default mixing * dielectric matrix)
  average eigenvalue GAMMA=   0.9706
  3.3127  3.3127  1.7951  1.7951  1.4880  0.5193  0.5193  0.4779  0.8344  0.8344
  0.1656  0.3347  0.3347  0.5628  0.5628  0.6311  0.5081  0.5081  0.4578  0.4578

 Free energy of the ion-electron system (eV)
  ---------------------------------------------------
  alpha Z        PSCENC =         0.45022818
  Ewald energy   TEWEN  =      -105.50132097
  -1/2 Hartree   DENC   =      -495.11061372
  -exchange  EXHF       =         0.00000000
  -V(xc)+E(xc)   XCENC  =        44.37798378
  PAW double counting   =       570.48127483     -573.48931914
  entropy T*S    EENTRO =        -0.25228623
  eigenvalues    EBANDS =      -141.07568554
  atomic energy  EATOM  =       696.73819845
  ---------------------------------------------------
  free energy    TOTEN  =        -3.38154037 eV

  energy without entropy =       -3.12925414  energy(sigma->0) =       -3.25539725


--------------------------------------------------------------------------------------------------------




----------------------------------------- Iteration    1(  26)  ---------------------------------------


    POTLOK:  cpu time    1.82: real time    1.82
    SETDIJ:  cpu time    0.02: real time    0.02
    EDDIAG:  cpu time    0.11: real time    0.11
  RMM-DIIS:  cpu time    0.46: real time    0.46
    ORTHCH:  cpu time    0.01: real time    0.01
       DOS:  cpu time    0.00: real time    0.00
    CHARGE:  cpu time    0.11: real time    0.11
    MIXING:  cpu time    0.12: real time    0.12
    --------------------------------------------
      LOOP:  cpu time    2.65: real time    2.65

 eigenvalue-minimisations  :    43
 total energy-change (2. order) : 0.1122272E+00  (-0.1368744E-02)
 number of electron      11.0000051 magnetization       2.3233251
 augmentation part        0.6574511 magnetization      -1.1293255

 Broyden mixing:
  rms(total) = 0.88508E+00    rms(broyden)= 0.88489E+00
  rms(prec ) = 0.99067E+00
  weight for this iteration     100.00

 eigenvalues of (default mixing * dielectric matrix)
  average eigenvalue GAMMA=   0.9410
  3.2798  3.2798  1.9094  1.9094  1.4374  0.5193  0.5193  0.4779  0.8423  0.8423
  0.1656  0.3347  0.3347  0.5865  0.5865  0.6306  0.5075  0.5075  0.4620  0.4620
  0.1667

 Free energy of the ion-electron system (eV)
  ---------------------------------------------------
  alpha Z        PSCENC =         0.45022818
  Ewald energy   TEWEN  =      -105.50132097
  -1/2 Hartree   DENC   =      -495.21680587
  -exchange  EXHF       =         0.00000000
  -V(xc)+E(xc)   XCENC  =        44.34439725
  PAW double counting   =       570.44255161     -573.45029249
  entropy T*S    EENTRO =        -0.20143713
  eigenvalues    EBANDS =      -140.87483220
  atomic energy  EATOM  =       696.73819845
  ---------------------------------------------------
  free energy    TOTEN  =        -3.26931317 eV

  energy without entropy =       -3.06787604  energy(sigma->0) =       -3.16859460


--------------------------------------------------------------------------------------------------------




----------------------------------------- Iteration    1(  27)  ---------------------------------------


    POTLOK:  cpu time    1.81: real time    1.81
    SETDIJ:  cpu time    0.02: real time    0.02
    EDDIAG:  cpu time    0.11: real time    0.11
  RMM-DIIS:  cpu time    0.46: real time    0.45
    ORTHCH:  cpu time    0.01: real time    0.01
       DOS:  cpu time    0.00: real time    0.00
    CHARGE:  cpu time    0.12: real time    0.12
    MIXING:  cpu time    0.14: real time    0.14
    --------------------------------------------
      LOOP:  cpu time    2.66: real time    2.66

 eigenvalue-minimisations  :    42
 total energy-change (2. order) :-0.3301899E-01  (-0.6570667E-03)
 number of electron      11.0000053 magnetization       2.3270096
 augmentation part        0.6763472 magnetization      -0.7422736

 Broyden mixing:
  rms(total) = 0.83833E+00    rms(broyden)= 0.83828E+00
  rms(prec ) = 0.10786E+01
  weight for this iteration     100.00

 eigenvalues of (default mixing * dielectric matrix)
  average eigenvalue GAMMA=   0.9274
  3.3415  3.3415  1.9376  1.9376  1.4380  0.5193  0.5193  0.4779  0.1656  0.8371
  0.8371  0.3347  0.3347  0.6298  0.5512  0.5512  0.4971  0.4971  0.4469  0.4469
  0.3801  0.3801

 Free energy of the ion-electron system (eV)
  ---------------------------------------------------
  alpha Z        PSCENC =         0.45022818
  Ewald energy   TEWEN  =      -105.50132097
  -1/2 Hartree   DENC   =      -495.09706719
  -exchange  EXHF       =         0.00000000
  -V(xc)+E(xc)   XCENC  =        44.37779799
  PAW double counting   =       570.44991070     -573.45715734
  entropy T*S    EENTRO =        -0.23423766
  eigenvalues    EBANDS =      -141.02868431
  atomic energy  EATOM  =       696.73819845
  ---------------------------------------------------
  free energy    TOTEN  =        -3.30233216 eV

  energy without entropy =       -3.06809450  energy(sigma->0) =       -3.18521333


--------------------------------------------------------------------------------------------------------




----------------------------------------- Iteration    1(  28)  ---------------------------------------


    POTLOK:  cpu time    1.80: real time    1.80
    SETDIJ:  cpu time    0.02: real time    0.02
    EDDIAG:  cpu time    0.11: real time    0.11
  RMM-DIIS:  cpu time    0.48: real time    0.48
    ORTHCH:  cpu time    0.01: real time    0.01
       DOS:  cpu time    0.00: real time    0.00
    CHARGE:  cpu time    0.13: real time    0.13
    MIXING:  cpu time    0.15: real time    0.15
    --------------------------------------------
      LOOP:  cpu time    2.69: real time    2.69

 eigenvalue-minimisations  :    43
 total energy-change (2. order) : 0.9191374E-02  (-0.5719797E-04)
 number of electron      11.0000052 magnetization       2.3187164
 augmentation part        0.6719824 magnetization      -0.8414194

 Broyden mixing:
  rms(total) = 0.83963E+00    rms(broyden)= 0.83963E+00
  rms(prec ) = 0.10462E+01
  weight for this iteration     100.00

 eigenvalues of (default mixing * dielectric matrix)
  average eigenvalue GAMMA=   0.9816
  3.6257  3.6257  2.0279  2.0279  1.4443  0.8214  0.8214  0.5193  0.5193  0.4779
  0.8586  0.8586  0.1656  0.3347  0.3347  0.6309  0.5661  0.5661  0.5430  0.5430
  0.4686  0.4686  0.3287

 Free energy of the ion-electron system (eV)
  ---------------------------------------------------
  alpha Z        PSCENC =         0.45022818
  Ewald energy   TEWEN  =      -105.50132097
  -1/2 Hartree   DENC   =      -495.16744968
  -exchange  EXHF       =         0.00000000
  -V(xc)+E(xc)   XCENC  =        44.38542799
  PAW double counting   =       570.64060403     -573.64899442
  entropy T*S    EENTRO =        -0.22822699
  eigenvalues    EBANDS =      -140.96160738
  atomic energy  EATOM  =       696.73819845
  ---------------------------------------------------
  free energy    TOTEN  =        -3.29314079 eV

  energy without entropy =       -3.06491380  energy(sigma->0) =       -3.17902730


--------------------------------------------------------------------------------------------------------




----------------------------------------- Iteration    1(  29)  ---------------------------------------


    POTLOK:  cpu time    1.78: real time    1.78
    SETDIJ:  cpu time    0.02: real time    0.02
    EDDIAG:  cpu time    0.11: real time    0.11
  RMM-DIIS:  cpu time    0.41: real time    0.41
    ORTHCH:  cpu time    0.01: real time    0.01
       DOS:  cpu time    0.00: real time    0.00
    CHARGE:  cpu time    0.13: real time    0.13
    MIXING:  cpu time    0.16: real time    0.16
    --------------------------------------------
      LOOP:  cpu time    2.60: real time    2.61

 eigenvalue-minimisations  :    34
 total energy-change (2. order) : 0.1841945E-01  (-0.1645371E-04)
 number of electron      11.0000051 magnetization       2.3506763
 augmentation part        0.6672115 magnetization      -0.9074421

 Broyden mixing:
  rms(total) = 0.84797E+00    rms(broyden)= 0.84797E+00
  rms(prec ) = 0.10186E+01
  weight for this iteration     100.00

 eigenvalues of (default mixing * dielectric matrix)
  average eigenvalue GAMMA=   0.9690
  3.4760  3.4760  1.9757  1.9757  1.2044  1.4305  0.5193  0.5193  0.4779  0.8658
  0.8658  0.7326  0.7326  0.1656  0.3347  0.3347  0.6339  0.5565  0.5565  0.5726
  0.5726  0.4731  0.4731  0.3304

 Free energy of the ion-electron system (eV)
  ---------------------------------------------------
  alpha Z        PSCENC =         0.45022818
  Ewald energy   TEWEN  =      -105.50132097
  -1/2 Hartree   DENC   =      -495.19618182
  -exchange  EXHF       =         0.00000000
  -V(xc)+E(xc)   XCENC  =        44.38496463
  PAW double counting   =       570.66829729     -573.67734228
  entropy T*S    EENTRO =        -0.22174011
  eigenvalues    EBANDS =      -140.91982469
  atomic energy  EATOM  =       696.73819845
  ---------------------------------------------------
  free energy    TOTEN  =        -3.27472133 eV

  energy without entropy =       -3.05298122  energy(sigma->0) =       -3.16385128


--------------------------------------------------------------------------------------------------------




----------------------------------------- Iteration    1(  30)  ---------------------------------------


    POTLOK:  cpu time    1.77: real time    1.78
    SETDIJ:  cpu time    0.02: real time    0.02
    EDDIAG:  cpu time    0.11: real time    0.11
  RMM-DIIS:  cpu time    0.44: real time    0.44
    ORTHCH:  cpu time    0.01: real time    0.01
       DOS:  cpu time    0.00: real time    0.00
    CHARGE:  cpu time    0.12: real time    0.12
    MIXING:  cpu time    0.16: real time    0.16
    --------------------------------------------
      LOOP:  cpu time    2.63: real time    2.63

 eigenvalue-minimisations  :    36
 total energy-change (2. order) :-0.3709987E-01  (-0.3402447E-04)
 number of electron      11.0000051 magnetization       2.7820000
 augmentation part        0.6681100 magnetization      -0.4630980

 Broyden mixing:
  rms(total) = 0.83591E+00    rms(broyden)= 0.83591E+00
  rms(prec ) = 0.10134E+01
  weight for this iteration     100.00

 eigenvalues of (default mixing * dielectric matrix)
  average eigenvalue GAMMA=   1.2057
  5.2451  5.2451  2.7185  2.7185  1.6376  1.3947  1.3947  0.5193  0.5193  0.4779
  0.1656  0.8704  0.8704  0.3347  0.3347  0.7386  0.7386  0.5410  0.5410  0.6124
  0.6124  0.6309  0.4764  0.4764  0.3287

 Free energy of the ion-electron system (eV)
  ---------------------------------------------------
  alpha Z        PSCENC =         0.45022818
  Ewald energy   TEWEN  =      -105.50132097
  -1/2 Hartree   DENC   =      -495.13447441
[...]
  ---------------------------------------------------
  free energy    TOTEN  =        -4.79375271 eV

  energy without entropy =       -4.63471673  energy(sigma->0) =       -4.71423472


--------------------------------------------------------------------------------------------------------




----------------------------------------- Iteration    1(  48)  ---------------------------------------


    POTLOK:  cpu time    1.80: real time    1.80
    SETDIJ:  cpu time    0.02: real time    0.02
    EDDIAG:  cpu time    0.12: real time    0.12
  RMM-DIIS:  cpu time    0.46: real time    0.46
    ORTHCH:  cpu time    0.01: real time    0.01
       DOS:  cpu time    0.00: real time    0.00
    CHARGE:  cpu time    0.12: real time    0.13
    MIXING:  cpu time    0.36: real time    0.36
    --------------------------------------------
      LOOP:  cpu time    2.89: real time    2.89

 eigenvalue-minimisations  :    39
 total energy-change (2. order) :-0.8271857E-02  (-0.4824972E-04)
 number of electron      11.0000045 magnetization       5.0713731
 augmentation part        0.6465862 magnetization       0.8796191

 Broyden mixing:
  rms(total) = 0.49727E-01    rms(broyden)= 0.49347E-01
  rms(prec ) = 0.70192E-01
  weight for this iteration     100.00

 eigenvalues of (default mixing * dielectric matrix)
  average eigenvalue GAMMA=   1.3301
  6.4613  6.4613  4.0479  4.0479  2.7677  2.7677  1.8051  1.8051  1.8746  1.8746
  1.1674  1.1674  0.5193  0.5193  0.4779  1.2590  1.2590  1.3621  0.1656  0.9682
  0.9682  0.8839  0.8839  0.8863  0.8863  0.3347  0.3347  0.7035  0.7035  0.7576
  0.5390  0.5390  0.6391  0.6391  0.6666  0.5830  0.5830  0.6079  0.5398  0.4806
  0.4806  0.3308  0.4455

 Free energy of the ion-electron system (eV)
  ---------------------------------------------------
  alpha Z        PSCENC =         0.45022818
  Ewald energy   TEWEN  =      -105.50132097
  -1/2 Hartree   DENC   =      -494.91616546
  -exchange  EXHF       =         0.00000000
  -V(xc)+E(xc)   XCENC  =        45.86365191
  PAW double counting   =       574.35011619     -577.21544733
  entropy T*S    EENTRO =        -0.15852779
  eigenvalues    EBANDS =      -144.41275775
  atomic energy  EATOM  =       696.73819845
  ---------------------------------------------------
  free energy    TOTEN  =        -4.80202457 eV

  energy without entropy =       -4.64349678  energy(sigma->0) =       -4.72276068


--------------------------------------------------------------------------------------------------------




----------------------------------------- Iteration    1(  49)  ---------------------------------------


    POTLOK:  cpu time    1.80: real time    1.80
    SETDIJ:  cpu time    0.02: real time    0.02
    EDDIAG:  cpu time    0.12: real time    0.12
  RMM-DIIS:  cpu time    0.47: real time    0.47
    ORTHCH:  cpu time    0.01: real time    0.01
       DOS:  cpu time    0.00: real time    0.00
    CHARGE:  cpu time    0.11: real time    0.11
    MIXING:  cpu time    0.33: real time    0.33
    --------------------------------------------
      LOOP:  cpu time    2.86: real time    2.87

 eigenvalue-minimisations  :    37
 total energy-change (2. order) :-0.2256382E-02  (-0.3264233E-04)
 number of electron      11.0000045 magnetization       5.0745133
 augmentation part        0.6463351 magnetization       0.8763513

 Broyden mixing:
  rms(total) = 0.49995E-01    rms(broyden)= 0.49560E-01
  rms(prec ) = 0.67149E-01
  weight for this iteration     100.00

 eigenvalues of (default mixing * dielectric matrix)
  average eigenvalue GAMMA=   1.3330
  6.4582  6.4582  3.9762  3.9762  2.7208  2.7208  1.8051  1.8051  2.1737  1.9107
  1.9107  0.5193  0.5193  0.4779  1.1730  1.1730  1.2549  1.2549  0.1656  1.0100
  1.0100  0.8763  0.8763  0.3347  0.3347  0.8881  0.8881  0.7112  0.7112  0.5390
  0.5390  0.6677  0.6677  0.3308  0.6882  0.6882  0.6168  0.6168  0.6020  0.6020
  0.4807  0.4807  0.5449  0.4939

 Free energy of the ion-electron system (eV)
  ---------------------------------------------------
  alpha Z        PSCENC =         0.45022818
  Ewald energy   TEWEN  =      -105.50132097
  -1/2 Hartree   DENC   =      -494.97022038
  -exchange  EXHF       =         0.00000000
  -V(xc)+E(xc)   XCENC  =        45.87659606
  PAW double counting   =       574.25160321     -577.11614422
  entropy T*S    EENTRO =        -0.15663585
  eigenvalues    EBANDS =      -144.37658542
  atomic energy  EATOM  =       696.73819845
  ---------------------------------------------------
  free energy    TOTEN  =        -4.80428095 eV

  energy without entropy =       -4.64764511  energy(sigma->0) =       -4.72596303


--------------------------------------------------------------------------------------------------------




----------------------------------------- Iteration    1(  50)  ---------------------------------------


    POTLOK:  cpu time    1.81: real time    1.81
    SETDIJ:  cpu time    0.02: real time    0.02
    EDDIAG:  cpu time    0.13: real time    0.13
  RMM-DIIS:  cpu time    0.40: real time    0.40
    ORTHCH:  cpu time    0.01: real time    0.01
       DOS:  cpu time    0.00: real time    0.00
    CHARGE:  cpu time    0.12: real time    0.11
    MIXING:  cpu time    0.31: real time    0.32
    --------------------------------------------
      LOOP:  cpu time    2.80: real time    2.80

 eigenvalue-minimisations  :    34
 total energy-change (2. order) :-0.1766759E-03  (-0.2376386E-04)
 number of electron      11.0000045 magnetization       5.0769612
 augmentation part        0.6461686 magnetization       0.8761467

 Broyden mixing:
  rms(total) = 0.50207E-01    rms(broyden)= 0.50124E-01
  rms(prec ) = 0.66099E-01
  weight for this iteration     100.00

 eigenvalues of (default mixing * dielectric matrix)
  average eigenvalue GAMMA=   1.2818
  6.4441  3.4021  3.4021  2.4519  2.4519  3.0405  2.4325  2.4325  1.7624  1.7624
  1.8684  0.9595  0.9595  0.5404  0.5404  0.2983  1.0841  1.0841  0.0246  0.7760
  0.7760  0.8286  0.8286  0.9136  0.9136  0.6241  0.6241  0.8550  0.8550  0.3834
  0.6754  0.6754  0.5156  0.5156  0.6424  0.6424  0.5397  0.5644  0.5644  0.6190

 Free energy of the ion-electron system (eV)
  ---------------------------------------------------
  alpha Z        PSCENC =         0.45022818
  Ewald energy   TEWEN  =      -105.50132097
  -1/2 Hartree   DENC   =      -495.00580372
  -exchange  EXHF       =         0.00000000
  -V(xc)+E(xc)   XCENC  =        45.87955898
  PAW double counting   =       574.21412423     -577.07898512
  entropy T*S    EENTRO =        -0.15574947
  eigenvalues    EBANDS =      -144.34470818
  atomic energy  EATOM  =       696.73819845
  ---------------------------------------------------
  free energy    TOTEN  =        -4.80445763 eV

  energy without entropy =       -4.64870815  energy(sigma->0) =       -4.72658289


--------------------------------------------------------------------------------------------------------




----------------------------------------- Iteration    1(  51)  ---------------------------------------


    POTLOK:  cpu time    1.83: real time    1.83
    SETDIJ:  cpu time    0.02: real time    0.02
    EDDIAG:  cpu time    0.11: real time    0.11
  RMM-DIIS:  cpu time    0.38: real time    0.38
    ORTHCH:  cpu time    0.00: real time    0.01
       DOS:  cpu time    0.00: real time    0.00
    CHARGE:  cpu time    0.11: real time    0.11
    MIXING:  cpu time    0.29: real time    0.29
    --------------------------------------------
      LOOP:  cpu time    2.75: real time    2.75

 eigenvalue-minimisations  :    34
 total energy-change (2. order) : 0.1892610E-02  (-0.1673443E-04)
 number of electron      11.0000045 magnetization       5.0758292
 augmentation part        0.6460379 magnetization       0.8735342

 Broyden mixing:
  rms(total) = 0.47059E-01    rms(broyden)= 0.47027E-01
  rms(prec ) = 0.62346E-01
  weight for this iteration     100.00

 eigenvalues of (default mixing * dielectric matrix)
  average eigenvalue GAMMA=   1.2697
  6.4714  3.5312  3.5312  2.4740  2.4740  2.7841  2.4404  2.4404  1.7713  1.7713
  1.8474  0.9974  0.9974  0.6733  0.4052  0.4052  1.1856  1.1856  0.0280  0.7799
  0.7799  0.8178  0.8178  0.9069  0.9069  0.3930  0.3930  0.6017  0.6017  0.8509
  0.8509  0.4268  0.6835  0.6835  0.5852  0.5852  0.6386  0.6386  0.5416  0.5416
  0.6192

 Free energy of the ion-electron system (eV)
  ---------------------------------------------------
  alpha Z        PSCENC =         0.45022818
  Ewald energy   TEWEN  =      -105.50132097
  -1/2 Hartree   DENC   =      -495.03151837
  -exchange  EXHF       =         0.00000000
  -V(xc)+E(xc)   XCENC  =        45.88393824
  PAW double counting   =       574.21929484     -577.08420984
  entropy T*S    EENTRO =        -0.15544331
  eigenvalues    EBANDS =      -144.32173222
  atomic energy  EATOM  =       696.73819845
  ---------------------------------------------------
  free energy    TOTEN  =        -4.80256502 eV

  energy without entropy =       -4.64712171  energy(sigma->0) =       -4.72484336


--------------------------------------------------------------------------------------------------------




----------------------------------------- Iteration    1(  52)  ---------------------------------------


    POTLOK:  cpu time    1.84: real time    1.84
    SETDIJ:  cpu time    0.02: real time    0.02
    EDDIAG:  cpu time    0.11: real time    0.11
  RMM-DIIS:  cpu time    0.34: real time    0.34
    ORTHCH:  cpu time    0.01: real time    0.01
       DOS:  cpu time    0.00: real time    0.00
    --------------------------------------------
      LOOP:  cpu time    2.30: real time    2.31

 eigenvalue-minimisations  :    29
 total energy-change (2. order) : 0.9761452E-04  (-0.6450603E-05)
 number of electron      11.0000045 magnetization       5.0758292
 augmentation part        0.6460379 magnetization       0.8735342

 Free energy of the ion-electron system (eV)
  ---------------------------------------------------
  alpha Z        PSCENC =         0.45022818
  Ewald energy   TEWEN  =      -105.50132097
  -1/2 Hartree   DENC   =      -495.05156473
  -exchange  EXHF       =         0.00000000
  -V(xc)+E(xc)   XCENC  =        45.88360222
  PAW double counting   =       574.21170581     -577.07656992
  entropy T*S    EENTRO =        -0.15522649
  eigenvalues    EBANDS =      -144.30151995
  atomic energy  EATOM  =       696.73819845
  ---------------------------------------------------
  free energy    TOTEN  =        -4.80246740 eV

  energy without entropy =       -4.64724091  energy(sigma->0) =       -4.72485416


--------------------------------------------------------------------------------------------------------




 average (electrostatic) potential at core
  the test charge radii are     0.7089  0.7215
  (the norm of the test charge is              1.0000)
       1 -74.6816       2 -83.4431
 
 
 
 E-fermi :  -7.4098     XC(G=0):  -0.7635     alpha+bet : -0.1481


 spin component 1

 k-point   1 :       0.0000    0.0000    0.0000
  band No.  band energies     occupation 
      1     -25.4818      1.00000
      2     -19.4572      1.00000
      3     -10.4741      1.00000
      4     -10.4645      1.00000
      5     -10.4578      1.00000
      6      -7.8709      0.99944
      7      -7.8696      0.99943
      8      -7.8647      0.99935
      9      -0.5596      0.00000
     10       0.7639      0.00000

 spin component 2

 k-point   1 :       0.0000    0.0000    0.0000
  band No.  band energies     occupation 
      1     -22.1463      1.00000
      2     -14.8663      1.00000
      3      -7.3517      0.34071
      4      -7.3500      0.33621
      5      -7.3456      0.32486
      6      -3.7128      0.00000
      7      -3.7113      0.00000
      8      -3.7074      0.00000
      9      -0.2664      0.00000
     10       1.0353      0.00000


--------------------------------------------------------------------------------------------------------


 soft charge-density along one line, spin component           1
         0         1         2         3         4         5         6         7         8         9
 total charge-density along one line
 
 soft charge-density along one line, spin component           2
         0         1         2         3         4         5         6         7         8         9
 total charge-density along one line
 
 pseudopotential strength for first ion, spin component:           1
 14.496  17.419  -0.000  -0.000  -0.000  -0.000   0.000  -0.000
 17.419  20.933  -0.000  -0.000  -0.000  -0.000   0.000  -0.000
 -0.000  -0.000  -7.731   0.000   0.000 -10.799   0.000   0.000
 -0.000  -0.000   0.000  -7.731   0.000   0.000 -10.799   0.000
 -0.000  -0.000   0.000   0.000  -7.731   0.000   0.000 -10.799
 -0.000  -0.000 -10.799   0.000   0.000 -14.449   0.000   0.000
  0.000   0.000   0.000 -10.799   0.000   0.000 -14.449   0.000
 -0.000  -0.000   0.000   0.000 -10.799   0.000   0.000 -14.449
 pseudopotential strength for first ion, spin component:           2
 13.329  15.992  -0.000   0.000  -0.000  -0.000   0.000  -0.000
 15.992  19.188  -0.000   0.000  -0.000  -0.000   0.000  -0.000
 -0.000  -0.000  -7.233  -0.000  -0.000 -10.016  -0.000  -0.000
  0.000   0.000  -0.000  -7.233   0.000  -0.000 -10.017   0.000
 -0.000  -0.000  -0.000   0.000  -7.233  -0.000   0.000 -10.016
 -0.000  -0.000 -10.016  -0.000  -0.000 -13.218  -0.000  -0.000
  0.000   0.000  -0.000 -10.017   0.000  -0.000 -13.219   0.000
 -0.000  -0.000  -0.000   0.000 -10.016  -0.000   0.000 -13.218
 total augmentation occupancy for first ion, spin component:           1
  2.700  -0.333   0.000   0.004   0.000   0.000  -0.001   0.000
 -0.333   0.048   0.000  -0.003   0.000   0.000   0.000   0.000
  0.000   0.000   0.948   0.000   0.000   0.028   0.000   0.000
  0.004  -0.003   0.000   0.946   0.000   0.000   0.028   0.000
  0.000   0.000   0.000   0.000   0.946   0.000   0.000   0.028
  0.000   0.000   0.028   0.000   0.000   0.001   0.000   0.000
 -0.001   0.000   0.000   0.028   0.000   0.000   0.001   0.000
  0.000   0.000   0.000   0.000   0.028   0.000   0.000   0.001
 total augmentation occupancy for first ion, spin component:           2
 -0.286   0.169   0.000   0.000   0.000   0.000   0.000   0.000
  0.169  -0.037   0.000  -0.001   0.000   0.000  -0.000   0.000
  0.000   0.000   0.948   0.000   0.000   0.028   0.000   0.000
  0.000  -0.001   0.000   0.944   0.000   0.000   0.028   0.000
  0.000   0.000   0.000   0.000   0.946   0.000   0.000   0.028
  0.000   0.000   0.028   0.000   0.000   0.001   0.000   0.000
  0.000  -0.000   0.000   0.028   0.000   0.000   0.001   0.000
  0.000   0.000   0.000   0.000   0.028   0.000   0.000   0.001


------------------------ aborting loop because EDIFF is reached ----------------------------------------


    CHARGE:  cpu time    0.11: real time    0.11
    FORLOC:  cpu time    0.06: real time    0.06
    FORNL :  cpu time    0.13: real time    0.13
    STRESS:  cpu time    0.41: real time    0.41
    FORCOR:  cpu time    1.88: real time    1.88
    FORHAR:  cpu time    0.19: real time    0.19
    MIXING:  cpu time    0.30: real time    0.30

  FORCE on cell =-STRESS in cart. coord.  units (eV):
  Direction    XX          YY          ZZ          XY          YZ          ZX
  --------------------------------------------------------------------------------------
  Alpha Z     0.45023     0.45023     0.45023
  Ewald     -79.41623   -83.77685    57.69173    -0.00000     0.00000     0.00000
  Hartree   125.63635   121.31708   249.16979    -0.00000    -0.00000    -0.00000
  E(xc)     -49.38354   -49.38402   -49.37935     0.00000     0.00000     0.00000
  Local    -195.00342  -186.19406  -455.25022    -0.00000     0.00000    -0.00000
  n-local   -27.45003   -27.40777   -27.34901    -0.00000    -0.00000    -0.00000
  augment     6.51960     6.50474     6.47265    -0.00000    -0.00000     0.00000
  Kinetic   217.51737   217.41195   217.07948     0.00000     0.00001     0.00000
  Fock        0.00000     0.00000     0.00000     0.00000     0.00000     0.00000
  -------------------------------------------------------------------------------------
  Total      -1.12967    -1.07871    -1.11470     0.00000     0.00000     0.00000
  in kB      -1.65697    -1.58223    -1.63501     0.00000     0.00000     0.00000
  external pressure =       -1.62 kB  Pullay stress =        0.00 kB


 VOLUME and BASIS-vectors are now :
 -----------------------------------------------------------------------------
  energy-cutoff  :      400.00
  volume of cell :     1092.32
      direct lattice vectors                 reciprocal lattice vectors
    10.100000000  0.000000000  0.000000000     0.099009901  0.000000000  0.000000000
     0.000000000 10.300000000  0.000000000     0.000000000  0.097087379  0.000000000
     0.000000000  0.000000000 10.500000000     0.000000000  0.000000000  0.095238095

  length of vectors
    10.100000000 10.300000000 10.500000000     0.099009901  0.097087379  0.095238095


 FORCES acting on ions
    electron-ion (+dipol)            ewald-force                    non-local-force                 convergence-correction
 -----------------------------------------------------------------------------------------------
   0.386E-14 0.522E-14 0.281E+02   0.605E-16 -.308E-16 -.280E+02   0.000E+00 0.000E+00 -.121E-02   -.150E-12 -.303E-12 -.174E+00
   0.420E-14 -.906E-14 -.278E+02   0.115E-16 0.342E-16 0.280E+02   0.000E+00 0.000E+00 0.739E-01   0.576E-12 0.764E-12 -.212E+00
 -----------------------------------------------------------------------------------------------
   0.806E-14 -.384E-14 0.313E+00   0.720E-16 0.346E-17 0.000E+00   0.000E+00 0.000E+00 0.727E-01   0.426E-12 0.460E-12 -.386E+00
 
 
 POSITION                                       TOTAL-FORCE (eV/Angst)
 -----------------------------------------------------------------------------------
      0.00000      0.00000      0.00000         0.000000      0.000000      0.001290
      0.00000      0.00000      3.50000         0.000000      0.000000     -0.001290
 -----------------------------------------------------------------------------------
    total drift:                                0.000000      0.000000     -0.000559


--------------------------------------------------------------------------------------------------------



  FREE ENERGIE OF THE ION-ELECTRON SYSTEM (eV)
  ---------------------------------------------------
  free  energy   TOTEN  =        -4.80246740 eV

  energy  without entropy=       -4.64724091  energy(sigma->0) =       -4.72485416
 


--------------------------------------------------------------------------------------------------------


    POTLOK:  cpu time    1.79: real time    1.79


--------------------------------------------------------------------------------------------------------


     LOOP+:  cpu time  138.23: real time  138.34
    4ORBIT:  cpu time    0.00: real time    0.00

 total amount of memory used by VASP on root node   175530. kBytes
========================================================================

   base      :      30000. kBytes
   nonl-proj :       3171. kBytes
   fftplans  :      37440. kBytes
   grid      :      98560. kBytes
   one-center:         12. kBytes
   wavefun   :       6347. kBytes
 
  
  
 General timing and accounting informations for this job:
 ========================================================
  
                  Total CPU time used (sec):      139.836
                            User time (sec):      138.980
                          System time (sec):        0.856
                         Elapsed time (sec):      139.944
  
                   Maximum memory used (kb):      376560.
                   Average memory used (kb):           0.
  
                          Minor page faults:       141866
                          Major page faults:            0
                 Voluntary context switches:            1
