 vasp.5.3.3 18Dez12 (build Sep  7 2015 22:32:56) complex                        
  
 executed on             LinuxIFC date 2002.02.18  05:58:14
 running on    1 total cores
 distrk:  each k-point on    1 cores,    1 groups
 distr:  one band on NCORES_PER_BAND=   1 cores,    1 groups


--------------------------------------------------------------------------------------------------------


 INCAR:
 POTCAR:    PAW_PBE N 08Apr2002                   
 POTCAR:    PAW_PBE O 08Apr2002                   
 POTCAR:    PAW_PBE N 08Apr2002                   
   VRHFIN =N: s2p3                                                              
   LEXCH  = PE                                                                  
   EATOM  =   264.5486 eV,   19.4438 Ry                                         
                                                                                
   TITEL  = PAW_PBE N 08Apr2002                                                 
   LULTRA =        F    use ultrasoft PP ?                                      
   IUNSCR =        1    unscreen: 0-lin 1-nonlin 2-no                           
   RPACOR =    1.200    partial core radius                                     
   POMASS =   14.001; ZVAL   =    5.000    mass and valenz                      
   RCORE  =    1.500    outmost cutoff radius                                   
   RWIGS  =    1.400; RWIGS  =    0.741    wigner-seitz radius (au A)           
   ENMAX  =  400.000; ENMIN  =  300.000 eV                                      
   ICORE  =        2    local potential                                         
   LCOR   =        T    correct aug charges                                     
   LPAW   =        T    paw PP                                                  
   EAUG   =  627.112                                                            
   DEXC   =    0.000                                                            
   RMAX   =    1.529    core radius for proj-oper                               
   RAUG   =    1.300    factor for augmentation sphere                          
   RDEP   =    1.514    radius for radial grids                                 
   RDEPT  =    1.338    core radius for aug-charge                              
                                                                                
   Atomic configuration                                                         
    4 entries                                                                   
     n  l   j            E        occ.                                          
     1  0  0.50      -384.7179   2.0000                                         
     2  0  0.50       -18.5828   2.0000                                         
     2  1  0.50        -7.0898   3.0000                                         
     3  2  1.50        -6.8029   0.0000                                         
   Description                                                                  
     l       E           TYP  RCUT    TYP  RCUT                                 
     0    -18.5828119     23  1.200                                             
     0    -13.5018863     23  1.200                                             
     1     -7.0897853     23  1.500                                             
     1      9.5240782     23  1.500                                             
     2     -6.8029130      7  1.500                                             
  local pseudopotential read in
  partial core-charges read in
  partial kinetic energy density read in
  atomic valenz-charges read in
  non local Contribution for L=           0  read in
    real space projection operators read in
  non local Contribution for L=           0  read in
    real space projection operators read in
  non local Contribution for L=           1  read in
    real space projection operators read in
  non local Contribution for L=           1  read in
    real space projection operators read in
    PAW grid and wavefunctions read in
 
   number of l-projection  operators is LMAX  =           4
   number of lm-projection operators is LMMAX =           8
 
 POTCAR:    PAW_PBE O 08Apr2002                   
   VRHFIN =O: s2p4                                                              
   LEXCH  = PE                                                                  
   EATOM  =   432.3788 eV,   31.7789 Ry                                         
                                                                                
   TITEL  = PAW_PBE O 08Apr2002                                                 
   LULTRA =        F    use ultrasoft PP ?                                      
   IUNSCR =        1    unscreen: 0-lin 1-nonlin 2-no                           
   RPACOR =    1.200    partial core radius                                     
   POMASS =   16.000; ZVAL   =    6.000    mass and valenz                      
   RCORE  =    1.520    outmost cutoff radius                                   
   RWIGS  =    1.550; RWIGS  =    0.820    wigner-seitz radius (au A)           
   ENMAX  =  400.000; ENMIN  =  300.000 eV                                      
   ICORE  =        2    local potential                                         
   LCOR   =        T    correct aug charges                                     
   LPAW   =        T    paw PP                                                  
   EAUG   =  605.392                                                            
   DEXC   =    0.000                                                            
   RMAX   =    1.553    core radius for proj-oper                               
   RAUG   =    1.300    factor for augmentation sphere                          
   RDEP   =    1.550    radius for radial grids                                 
   RDEPT  =    1.329    core radius for aug-charge                              
                                                                                
   Atomic configuration                                                         
    4 entries                                                                   
     n  l   j            E        occ.                                          
     1  0  0.50      -514.6923   2.0000                                         
     2  0  0.50       -23.9615   2.0000                                         
     2  1  0.50        -9.0305   4.0000                                         
     3  2  1.50        -9.5241   0.0000                                         
   Description                                                                  
     l       E           TYP  RCUT    TYP  RCUT                                 
     0    -23.9615318     23  1.200                                             
     0     -9.5240782     23  1.200                                             
     1     -9.0304911     23  1.520                                             
     1      8.1634956     23  1.520                                             
     2     -9.5240782      7  1.500                                             
  local pseudopotential read in
  partial core-charges read in
  partial kinetic energy density read in
  kinetic energy density of atom read in
  atomic valenz-charges read in
  non local Contribution for L=           0  read in
    real space projection operators read in
  non local Contribution for L=           0  read in
    real space projection operators read in
  non local Contribution for L=           1  read in
    real space projection operators read in
  non local Contribution for L=           1  read in
    real space projection operators read in
    PAW grid and wavefunctions read in
 
   number of l-projection  operators is LMAX  =           4
   number of lm-projection operators is LMMAX =           8
 
  PAW_PBE N 08Apr2002                   :
 energy of atom  1       EATOM= -264.5486
 kinetic energy error for atom=    0.0736 (will be added to EATOM!!)
  PAW_PBE O 08Apr2002                   :
 energy of atom  2       EATOM= -432.3788
 kinetic energy error for atom=    0.1156 (will be added to EATOM!!)
 
 
 POSCAR: CO molecule in a box                    
  positions in cartesian coordinates
  No initial velocities read in
 exchange correlation table for  LEXCH =        8
   RHO(1)=    0.500       N(1)  =     2000
   RHO(2)=  100.500       N(2)  =     4000
 


--------------------------------------------------------------------------------------------------------


 ion  position               nearest neighbor table
   1  0.000  0.000  0.000-
   2  0.000  0.000  0.200-
 
  LATTYP: Found a simple orthorhombic cell.
 ALAT       =    10.1000000000
 B/A-ratio  =     1.0198019802
 C/A-ratio  =     1.0396039604
  
  Lattice vectors:
  
 A1 = (  10.1000000000,   0.0000000000,   0.0000000000)
 A2 = (   0.0000000000,  10.3000000000,   0.0000000000)
 A3 = (   0.0000000000,   0.0000000000,  10.5000000000)


Analysis of symmetry for initial positions (statically):
=====================================================================
 Subroutine PRICEL returns:
 Original cell was already a primitive cell.
 

 Routine SETGRP: Setting up the symmetry group for a 
 simple orthorhombic supercell.


 Subroutine GETGRP returns: Found  4 space group operations
 (whereof  4 operations were pure point group operations)
 out of a pool of  8 trial point group operations.


The static configuration has the point symmetry C_2v.


Analysis of symmetry for dynamics (positions and initial velocities):
=====================================================================
 Subroutine PRICEL returns:
 Original cell was already a primitive cell.
 

 Routine SETGRP: Setting up the symmetry group for a 
 simple orthorhombic supercell.


 Subroutine GETGRP returns: Found  4 space group operations
 (whereof  4 operations were pure point group operations)
 out of a pool of  8 trial point group operations.


The dynamic configuration has the point symmetry C_2v.


Analysis of constrained symmetry for selective dynamics:
=====================================================================
 Subroutine PRICEL returns:
 Original cell was already a primitive cell.
 

 Routine SETGRP: Setting up the symmetry group for a 
 simple orthorhombic supercell.


 Subroutine GETGRP returns: Found  4 space group operations
 (whereof  4 operations were pure point group operations)
 out of a pool of  8 trial point group operations.


The constrained configuration has the point symmetry C_2v.


Analysis of magnetic symmetry:
=====================================================================

 Subroutine MAGSYM returns: Found  4 space group operations
 (whereof  4 operations were pure point group operations)
 out of a pool of  4 trial space group operations
 (whereof  4 operations were pure point group operations)
 and found also     1 'primitive' translations


The magnetic configuration has the point symmetry C_2v.


 irot  :   1
 --------------------------------------------------------------------
 isymop:   1   0   0
           0   1   0
           0   0   1

 gtrans:     0.0000000     0.0000000     0.0000000

 ptrans:     0.0000000     0.0000000     0.0000000
 rotmap:
 (   1->   1)  (   2->   2) 


 irot  :   2
 --------------------------------------------------------------------
 isymop:  -1   0   0
           0  -1   0
           0   0   1

 gtrans:     0.0000000     0.0000000     0.0000000

 ptrans:     0.0000000     0.0000000     0.0000000
 rotmap:
 (   1->   1)  (   2->   2) 


 irot  :   3
 --------------------------------------------------------------------
 isymop:   1   0   0
           0  -1   0
           0   0   1

 gtrans:     0.0000000     0.0000000     0.0000000

 ptrans:     0.0000000     0.0000000     0.0000000
 rotmap:
 (   1->   1)  (   2->   2) 


 irot  :   4
 --------------------------------------------------------------------
 isymop:  -1   0   0
           0   1   0
           0   0   1

 gtrans:     0.0000000     0.0000000     0.0000000

 ptrans:     0.0000000     0.0000000     0.0000000
 rotmap:
 (   1->   1)  (   2->   2) 
 
 
 KPOINTS: Gamma-point only                        

Automatic generation of k-mesh.
Space group operators:
 irot       det(A)        alpha          n_x          n_y          n_z        tau_x        tau_y        tau_z
    1     1.000000     0.000000     1.000000     0.000000     0.000000     0.000000     0.000000     0.000000
    2     1.000000   180.000000     0.000000     0.000000     1.000000     0.000000     0.000000     0.000000
    3    -1.000000   180.000000     0.000000     1.000000     0.000000     0.000000     0.000000     0.000000
    4    -1.000000   180.000000     1.000000     0.000000     0.000000     0.000000     0.000000     0.000000
 
 Subroutine IBZKPT returns following result:
 ===========================================
 
 Found      1 irreducible k-points:
 
 Following reciprocal coordinates:
            Coordinates               Weight
  0.000000  0.000000  0.000000      1.000000
 
 Following cartesian coordinates:
            Coordinates               Weight
  0.000000  0.000000  0.000000      1.000000
 


--------------------------------------------------------------------------------------------------------




 Dimension of arrays:
   k-points           NKPTS =      1   k-points in BZ     NKDIM =      1   number of bands    NBANDS=     10
   number of dos      NEDOS =    301   number of ions     NIONS =      2
   non local maximal  LDIM  =      4   non local SUM 2l+1 LMDIM =      8
   total plane-waves  NPLWV = 135000
   max r-space proj   IRMAX =      1   max aug-charges    IRDMAX=   1803
   dimension x,y,z NGX =    50 NGY =   50 NGZ =   54
   dimension x,y,z NGXF=   100 NGYF=  100 NGZF=  108
   support grid    NGXF=   100 NGYF=  100 NGZF=  108
   ions per type =               1   1
 NGX,Y,Z   is equivalent  to a cutoff of   8.23,  8.07,  8.55 a.u.
 NGXF,Y,Z  is equivalent  to a cutoff of  16.46, 16.14, 17.10 a.u.


 I would recommend the setting:
   dimension x,y,z NGX =    49 NGY =   50 NGZ =   51
 SYSTEM =  Hello World                             
 POSCAR =  CO molecule in a box                    

 Startparameter for this run:
   NWRITE =      2    write-flag & timer
   PREC   = normal    normal or accurate (medium, high low for compatibility)
   ISTART =      0    job   : 0-new  1-cont  2-samecut
   ICHARG =      2    charge: 1-file 2-atom 10-const
   ISPIN  =      2    spin polarized calculation?
   LNONCOLLINEAR =      F non collinear calculations
   LSORBIT =      F    spin-orbit coupling
   INIWAV =      1    electr: 0-lowe 1-rand  2-diag
   LASPH  =      F    aspherical Exc in radial PAW
   METAGGA=      F    non-selfconsistent MetaGGA calc.

 Electronic Relaxation 1
   ENCUT  =  400.0 eV  29.40 Ry    5.42 a.u.  16.47 16.80 17.12*2*pi/ulx,y,z
   ENINI  =  400.0     initial cutoff
   ENAUG  =  627.1 eV  augmentation charge cutoff
   NELM   =     60;   NELMIN=  2; NELMDL=  0     # of ELM steps 
   EDIFF  = 0.1E-03   stopping-criterion for ELM
   LREAL  =      F    real-space projection
   NLSPLINE    = F    spline interpolate recip. space projectors
   LCOMPAT=      F    compatible to vasp.4.4
   GGA_COMPAT  = T    GGA compatible to vasp.4.4-vasp.4.6
   LMAXPAW     = -100 max onsite density
   LMAXMIX     =    2 max onsite mixed and CHGCAR
   VOSKOWN=      0    Vosko Wilk Nusair interpolation
   ROPT   =    0.00000   0.00000
 Ionic relaxation
   EDIFFG = -.1E-01   stopping-criterion for IOM
   NSW    =      0    number of steps for IOM
   NBLOCK =      1;   KBLOCK =      1    inner block; outer block 
   IBRION =     -1    ionic relax: 0-MD 1-quasi-New 2-CG
   NFREE  =      0    steps in history (QN), initial steepest desc. (CG)
   ISIF   =      2    stress and relaxation
   IWAVPR =     10    prediction:  0-non 1-charg 2-wave 3-comb
   ISYM   =      2    0-nonsym 1-usesym 2-fastsym
   LCORR  =      T    Harris-Foulkes like correction to forces

   POTIM  = 0.5000    time-step for ionic-motion
   TEIN   =    0.0    initial temperature
   TEBEG  =    0.0;   TEEND  =   0.0 temperature during run
   SMASS  =  -3.00    Nose mass-parameter (am)
   estimated Nose-frequenzy (Omega)   =  0.10E-29 period in steps =****** mass=  -0.233E-26a.u.
   SCALEE = 1.0000    scale energy and forces
   NPACO  =    256;   APACO  = 16.0  distance and # of slots for P.C.
   PSTRESS=    0.0 pullay stress

  Mass of Ions in am
   POMASS =  14.00 16.00
  Ionic Valenz
   ZVAL   =   5.00  6.00
  Atomic Wigner-Seitz radii
   RWIGS  =  -1.00 -1.00
  virtual crystal weights 
   VCA    =   1.00  1.00
   NELECT =      11.0000    total number of electrons
   NUPDOWN=      -1.0000    fix difference up-down

 DOS related values:
   EMIN   =  10.00;   EMAX   =-10.00  energy-range for DOS
   EFERMI =   0.00
   ISMEAR =     0;   SIGMA  =   0.20  broadening in eV -4-tet -1-fermi 0-gaus

 Electronic relaxation 2 (details)
   IALGO  =     68    algorithm
   LDIAG  =      T    sub-space diagonalisation (order eigenvalues)
   LSUBROT=      T    optimize rotation matrix (better conditioning)
   TURBO    =      0    0=normal 1=particle mesh
   IRESTART =      0    0=no restart 2=restart with 2 vectors
   NREBOOT  =      0    no. of reboots
   NMIN     =      0    reboot dimension
   EREF     =   0.00    reference energy to select bands
   IMIX   =      4    mixing-type and parameters
     AMIX     =   0.40;   BMIX     =  1.00
     AMIX_MAG =   1.60;   BMIX_MAG =  1.00
     AMIN     =   0.10
     WC   =   100.;   INIMIX=   1;  MIXPRE=   1;  MAXMIX= -45

 Intra band minimization:
   WEIMIN = 0.0000     energy-eigenvalue tresh-hold
   EBREAK =  0.25E-05  absolut break condition
   DEPER  =   0.30     relativ break condition  

   TIME   =   0.40     timestep for ELM

  volume/ion in A,a.u.               =     546.16      3685.65
  Fermi-wavevector in a.u.,A,eV,Ry     =   0.353527  0.668070  1.700478  0.124982
  Thomas-Fermi vector in A             =   1.267843
 
 Write flags
   LWAVE  =      F    write WAVECAR
   LCHARG =      F    write CHGCAR
   LVTOT  =      F    write LOCPOT, total local potential
   LVHAR  =      F    write LOCPOT, Hartree potential only
   LELF   =      F    write electronic localiz. function (ELF)
   LORBIT =      0    0 simple, 1 ext, 2 COOP (PROOUT)


 Dipole corrections
   LMONO  =      F    monopole corrections only (constant potential shift)
   LDIPOL =      F    correct potential (dipole corrections)
   IDIPOL =      0    1-x, 2-y, 3-z, 4-all directions 
   EPSILON=  1.0000000 bulk dielectric constant

 Exchange correlation treatment:
   GGA     =    --    GGA type
   LEXCH   =     8    internal setting for exchange type
   VOSKOWN=      0    Vosko Wilk Nusair interpolation
   LHFCALC =     F    Hartree Fock is set to
   LHFONE  =     F    Hartree Fock one center treatment
   AEXX    =    0.0000 exact exchange contribution

 Linear response parameters
   LEPSILON=     F    determine dielectric tensor
   LRPA    =     F    only Hartree local field effects (RPA)
   LNABLA  =     F    use nabla operator in PAW spheres
   LVEL    =     F    velocity operator in full k-point grid
   LINTERFAST=   F  fast interpolation
   KINTER  =     0    interpolate to denser k-point grid
   CSHIFT  =0.1000    complex shift for real part using Kramers Kronig
   OMEGAMAX=  -1.0    maximum frequency
   DEG_THRESHOLD= 0.2000000E-02 threshold for treating states as degnerate
   RTIME   =    0.100 relaxation time in fs

 Orbital magnetization related:
   ORBITALMAG=     F  switch on orbital magnetization
   LCHIMAG   =     F  perturbation theory with respect to B field
   DQ        =  0.001000  dq finite difference perturbation B field



--------------------------------------------------------------------------------------------------------


 Static calculation
 charge density and potential will be updated during run
 spin polarized calculation
 RMM-DIIS sequential band-by-band and
  variant of blocked Davidson during initial phase
 perform sub-space diagonalisation
    before iterative eigenvector-optimisation
 modified Broyden-mixing scheme, WC =      100.0
 initial mixing is a Kerker type mixing with AMIX =  0.4000 and BMIX =      1.0000
 Hartree-type preconditioning will be used
 using additional bands            4
 reciprocal scheme for non local part
 use partial core corrections
 calculate Harris-corrections to forces 
   (improved forces if not selfconsistent)
 use gradient corrections 
 use of overlap-Matrix (Vanderbilt PP)
 Gauss-broadening in eV      SIGMA  =   0.20


--------------------------------------------------------------------------------------------------------


  energy-cutoff  :      400.00
  volume of cell :     1092.32
      direct lattice vectors                 reciprocal lattice vectors
    10.100000000  0.000000000  0.000000000     0.099009901  0.000000000  0.000000000
     0.000000000 10.300000000  0.000000000     0.000000000  0.097087379  0.000000000
     0.000000000  0.000000000 10.500000000     0.000000000  0.000000000  0.095238095

  length of vectors
    10.100000000 10.300000000 10.500000000     0.099009901  0.097087379  0.095238095


 
 k-points in units of 2pi/SCALE and weight: Gamma-point only                        
   0.00000000  0.00000000  0.00000000       1.000
 
 k-points in reciprocal lattice and weights: Gamma-point only                        
   0.00000000  0.00000000  0.00000000       1.000
 
 position of ions in fractional coordinates (direct lattice) 
   0.00000000  0.00000000  0.00000000
   0.00000000  0.00000000  0.20000000
 
 position of ions in cartesian coordinates  (Angst):
   0.00000000  0.00000000  0.00000000
   0.00000000  0.00000000  2.10000000
 


--------------------------------------------------------------------------------------------------------


 k-point  1 :   0.0000 0.0000 0.0000  plane waves:   19819

 maximum and minimum number of plane-waves per node :     19819    19819

 maximum number of plane-waves:     19819
 maximum index in each direction: 
   IXMAX=   16   IYMAX=   16   IZMAX=   17
   IXMIN=  -16   IYMIN=  -16   IZMIN=  -17

 WARNING: aliasing errors must be expected set NGX to  66 to avoid them
 WARNING: aliasing errors must be expected set NGY to  66 to avoid them
 WARNING: aliasing errors must be expected set NGZ to  70 to avoid them
 aliasing errors are usually negligible using standard VASP settings
 and one can safely disregard these warnings

 serial   3D FFT for wavefunctions
 parallel 3D FFT for charge:
    minimum data exchange during FFTs selected (reduces bandwidth)


 total amount of memory used by VASP on root node   175530. kBytes
========================================================================

   base      :      30000. kBytes
   nonl-proj :       3171. kBytes
   fftplans  :      37440. kBytes
   grid      :      98560. kBytes
   one-center:         12. kBytes
   wavefun   :       6347. kBytes
 
 Broyden mixing: mesh for mixing (old mesh)
   NGX = 33   NGY = 33   NGZ = 35
  (NGX  =100   NGY  =100   NGZ  =108)
  gives a total of  38115 points

 initial charge density was supplied:
 charge density of overlapping atoms calculated
 number of electron      11.0000000 magnetization       2.0000000
 keeping initial charge density in first step


--------------------------------------------------------------------------------------------------------


 Maximum index for augmentation-charges         1529 (set IRDMAX)


--------------------------------------------------------------------------------------------------------


 First call to EWALD:  gamma=   0.172
 Maximum number of real-space cells 3x 3x 3
 Maximum number of reciprocal cells 3x 3x 3

 FEWALD executed in parallel
    FEWALD:  cpu time    0.00: real time    0.00


----------------------------------------- Iteration    1(   1)  ---------------------------------------


    POTLOK:  cpu time    1.66: real time    1.67
    SETDIJ:  cpu time    0.02: real time    0.02
     EDDAV:  cpu time    0.64: real time    0.63
       DOS:  cpu time    0.00: real time    0.00
    --------------------------------------------
      LOOP:  cpu time    2.32: real time    2.32

 eigenvalue-minimisations  :    56
 total energy-change (2. order) : 0.6665030E+02  (-0.1925827E+03)
 number of electron      11.0000000 magnetization       2.0000000
 augmentation part       11.0000000 magnetization       2.0000000

 Free energy of the ion-electron system (eV)
  ---------------------------------------------------
  alpha Z        PSCENC =         0.45022818
  Ewald energy   TEWEN  =       -30.65519188
  -1/2 Hartree   DENC   =      -565.63542659
  -exchange  EXHF       =         0.00000000
  -V(xc)+E(xc)   XCENC  =        44.21457422
  PAW double counting   =       551.20228741     -554.18101748
  entropy T*S    EENTRO =        -0.14000957
  eigenvalues    EBANDS =       -75.34334140
  atomic energy  EATOM  =       696.73819845
  ---------------------------------------------------
  free energy    TOTEN  =        66.65030133 eV

  energy without entropy =       66.79031091  energy(sigma->0) =       66.72030612


--------------------------------------------------------------------------------------------------------




----------------------------------------- Iteration    1(   2)  ---------------------------------------


     EDDAV:  cpu time    0.82: real time    0.82
       DOS:  cpu time    0.00: real time    0.00
    --------------------------------------------
      LOOP:  cpu time    0.82: real time    0.82

 eigenvalue-minimisations  :    78
 total energy-change (2. order) :-0.5854984E+02  (-0.5814185E+02)
 number of electron      11.0000000 magnetization       2.0000000
 augmentation part       11.0000000 magnetization       2.0000000

 Free energy of the ion-electron system (eV)
  ---------------------------------------------------
  alpha Z        PSCENC =         0.45022818
  Ewald energy   TEWEN  =       -30.65519188
  -1/2 Hartree   DENC   =      -565.63542659
  -exchange  EXHF       =         0.00000000
  -V(xc)+E(xc)   XCENC  =        44.21457422
  PAW double counting   =       551.20228741     -554.18101748
  entropy T*S    EENTRO =        -0.08762118
  eigenvalues    EBANDS =      -133.94556541
  atomic energy  EATOM  =       696.73819845
  ---------------------------------------------------
  free energy    TOTEN  =         8.10046571 eV

  energy without entropy =        8.18808689  energy(sigma->0) =        8.14427630


--------------------------------------------------------------------------------------------------------




----------------------------------------- Iteration    1(   3)  ---------------------------------------


     EDDAV:  cpu time    0.67: real time    0.67
       DOS:  cpu time    0.00: real time    0.00
    --------------------------------------------
      LOOP:  cpu time    0.67: real time    0.67

 eigenvalue-minimisations  :    62
 total energy-change (2. order) :-0.1333832E+02  (-0.1278216E+02)
 number of electron      11.0000000 magnetization       2.0000000
 augmentation part       11.0000000 magnetization       2.0000000

 Free energy of the ion-electron system (eV)
  ---------------------------------------------------
  alpha Z        PSCENC =         0.45022818
  Ewald energy   TEWEN  =       -30.65519188
  -1/2 Hartree   DENC   =      -565.63542659
  -exchange  EXHF       =         0.00000000
  -V(xc)+E(xc)   XCENC  =        44.21457422
  PAW double counting   =       551.20228741     -554.18101748
  entropy T*S    EENTRO =        -0.10759368
  eigenvalues    EBANDS =      -147.26391525
  atomic energy  EATOM  =       696.73819845
  ---------------------------------------------------
  free energy    TOTEN  =        -5.23785663 eV

  energy without entropy =       -5.13026295  energy(sigma->0) =       -5.18405979


--------------------------------------------------------------------------------------------------------




----------------------------------------- Iteration    1(   4)  ---------------------------------------


     EDDAV:  cpu time    0.48: real time    0.48
       DOS:  cpu time    0.00: real time    0.00
    --------------------------------------------
      LOOP:  cpu time    0.48: real time    0.48

 eigenvalue-minimisations  :    40
 total energy-change (2. order) :-0.3831558E+00  (-0.3782089E+00)
 number of electron      11.0000000 magnetization       2.0000000
 augmentation part       11.0000000 magnetization       2.0000000

 Free energy of the ion-electron system (eV)
  ---------------------------------------------------
  alpha Z        PSCENC =         0.45022818
  Ewald energy   TEWEN  =       -30.65519188
  -1/2 Hartree   DENC   =      -565.63542659
  -exchange  EXHF       =         0.00000000
  -V(xc)+E(xc)   XCENC  =        44.21457422
  PAW double counting   =       551.20228741     -554.18101748
  entropy T*S    EENTRO =        -0.11283020
  eigenvalues    EBANDS =      -147.64183449
  atomic energy  EATOM  =       696.73819845
  ---------------------------------------------------
  free energy    TOTEN  =        -5.62101239 eV

  energy without entropy =       -5.50818219  energy(sigma->0) =       -5.56459729


--------------------------------------------------------------------------------------------------------




----------------------------------------- Iteration    1(   5)  ---------------------------------------


     EDDAV:  cpu time    0.69: real time    0.69
       DOS:  cpu time    0.00: real time    0.00
    CHARGE:  cpu time    0.11: real time    0.11
    MIXING:  cpu time    0.03: real time    0.03
    --------------------------------------------
      LOOP:  cpu time    0.83: real time    0.83

 eigenvalue-minimisations  :    64
 total energy-change (2. order) :-0.8575737E-02  (-0.8568787E-02)
 number of electron      11.0000004 magnetization       1.5781327
 augmentation part        0.7019226 magnetization       0.7264781

 Broyden mixing:
  rms(total) = 0.11993E+01    rms(broyden)= 0.11975E+01
  rms(prec ) = 0.17158E+01
  weight for this iteration     100.00

 Free energy of the ion-electron system (eV)
  ---------------------------------------------------
  alpha Z        PSCENC =         0.45022818
  Ewald energy   TEWEN  =       -30.65519188
  -1/2 Hartree   DENC   =      -565.63542659
  -exchange  EXHF       =         0.00000000
  -V(xc)+E(xc)   XCENC  =        44.21457422
  PAW double counting   =       551.20228741     -554.18101748
  entropy T*S    EENTRO =        -0.11283784
  eigenvalues    EBANDS =      -147.65040259
  atomic energy  EATOM  =       696.73819845
  ---------------------------------------------------
  free energy    TOTEN  =        -5.62958813 eV

  energy without entropy =       -5.51675029  energy(sigma->0) =       -5.57316921


--------------------------------------------------------------------------------------------------------




----------------------------------------- Iteration    1(   6)  ---------------------------------------


    POTLOK:  cpu time    1.66: real time    1.66
    SETDIJ:  cpu time    0.02: real time    0.02
    EDDIAG:  cpu time    0.10: real time    0.10
  RMM-DIIS:  cpu time    0.47: real time    0.47
    ORTHCH:  cpu time    0.01: real time    0.01
       DOS:  cpu time    0.00: real time    0.00
    CHARGE:  cpu time    0.12: real time    0.12
    MIXING:  cpu time    0.03: real time    0.03
    --------------------------------------------
      LOOP:  cpu time    2.40: real time    2.41

 eigenvalue-minimisations  :    45
 total energy-change (2. order) :-0.1397883E+02  (-0.1475407E+01)
 number of electron      11.0000016 magnetization       1.5111043
 augmentation part        0.4207401 magnetization       0.7091459

 Broyden mixing:
  rms(total) = 0.31022E+01    rms(broyden)= 0.31002E+01
  rms(prec ) = 0.45194E+01
  weight for this iteration     100.00

 eigenvalues of (default mixing * dielectric matrix)
  average eigenvalue GAMMA=   0.2979
  0.2979

 Free energy of the ion-electron system (eV)
  ---------------------------------------------------
  alpha Z        PSCENC =         0.45022818
  Ewald energy   TEWEN  =       -30.65519188
  -1/2 Hartree   DENC   =      -577.13079640
  -exchange  EXHF       =         0.00000000
  -V(xc)+E(xc)   XCENC  =        46.19480006
  PAW double counting   =       582.03251465     -585.15093598
  entropy T*S    EENTRO =        -0.11461570
  eigenvalues    EBANDS =      -151.97261766
  atomic energy  EATOM  =       696.73819845
  ---------------------------------------------------
  free energy    TOTEN  =       -19.60841628 eV

  energy without entropy =      -19.49380058  energy(sigma->0) =      -19.55110843


--------------------------------------------------------------------------------------------------------




----------------------------------------- Iteration    1(   7)  ---------------------------------------


    POTLOK:  cpu time    1.66: real time    1.66
    SETDIJ:  cpu time    0.02: real time    0.02
    EDDIAG:  cpu time    0.10: real time    0.10
  RMM-DIIS:  cpu time    0.49: real time    0.49
    ORTHCH:  cpu time    0.00: real time    0.01
       DOS:  cpu time    0.00: real time    0.00
    CHARGE:  cpu time    0.12: real time    0.11
    MIXING:  cpu time    0.03: real time    0.03
    --------------------------------------------
      LOOP:  cpu time    2.43: real time    2.43

 eigenvalue-minimisations  :    47
 total energy-change (2. order) : 0.1590800E+02  (-0.4449166E+00)
 number of electron      11.0000003 magnetization       1.6064453
 augmentation part        0.5273912 magnetization      -0.1035820

 Broyden mixing:
  rms(total) = 0.82162E+00    rms(broyden)= 0.81939E+00
  rms(prec ) = 0.10812E+01
  weight for this iteration     100.00

 eigenvalues of (default mixing * dielectric matrix)
  average eigenvalue GAMMA=   0.3011
  0.3011  0.3011

 Free energy of the ion-electron system (eV)
  ---------------------------------------------------
  alpha Z        PSCENC =         0.45022818
  Ewald energy   TEWEN  =       -30.65519188
  -1/2 Hartree   DENC   =      -568.83788740
  -exchange  EXHF       =         0.00000000
  -V(xc)+E(xc)   XCENC  =        45.08133770
  PAW double counting   =       566.30670760     -569.31005643
  entropy T*S    EENTRO =        -0.17973415
  eigenvalues    EBANDS =      -143.29401968
  atomic energy  EATOM  =       696.73819845
  ---------------------------------------------------
  free energy    TOTEN  =        -3.70041762 eV

  energy without entropy =       -3.52068347  energy(sigma->0) =       -3.61055054


--------------------------------------------------------------------------------------------------------




----------------------------------------- Iteration    1(   8)  ---------------------------------------


    POTLOK:  cpu time    1.66: real time    1.66
    SETDIJ:  cpu time    0.02: real time    0.02
    EDDIAG:  cpu time    0.10: real time    0.10
  RMM-DIIS:  cpu time    0.50: real time    0.50
    ORTHCH:  cpu time    0.00: real time    0.01
       DOS:  cpu time    0.00: real time    0.00
    CHARGE:  cpu time    0.11: real time    0.11
    MIXING:  cpu time    0.04: real time    0.03
    --------------------------------------------
      LOOP:  cpu time    2.44: real time    2.44

 eigenvalue-minimisations  :    49
 total energy-change (2. order) :-0.7733362E+00  (-0.4770203E-01)
 number of electron      11.0000002 magnetization       1.7830598
 augmentation part        0.5851600 magnetization      -0.6166885

 Broyden mixing:
  rms(total) = 0.64252E+00    rms(broyden)= 0.64128E+00
  rms(prec ) = 0.66802E+00
  weight for this iteration     100.00

 eigenvalues of (default mixing * dielectric matrix)
  average eigenvalue GAMMA=   0.3879
  0.3302  0.4168  0.4168

 Free energy of the ion-electron system (eV)
  ---------------------------------------------------
  alpha Z        PSCENC =         0.45022818
  Ewald energy   TEWEN  =       -30.65519188
  -1/2 Hartree   DENC   =      -567.39089292
  -exchange  EXHF       =         0.00000000
  -V(xc)+E(xc)   XCENC  =        44.53553812
  PAW double counting   =       564.87012987     -567.81140408
  entropy T*S    EENTRO =        -0.13680180
  eigenvalues    EBANDS =      -145.07355772
  atomic energy  EATOM  =       696.73819845
  ---------------------------------------------------
  free energy    TOTEN  =        -4.47375378 eV

  energy without entropy =       -4.33695198  energy(sigma->0) =       -4.40535288


--------------------------------------------------------------------------------------------------------




----------------------------------------- Iteration    1(   9)  ---------------------------------------


    POTLOK:  cpu time    1.66: real time    1.66
    SETDIJ:  cpu time    0.02: real time    0.02
    EDDIAG:  cpu time    0.10: real time    0.10
  RMM-DIIS:  cpu time    0.49: real time    0.49
    ORTHCH:  cpu time    0.00: real time    0.01
       DOS:  cpu time    0.00: real time    0.00
    CHARGE:  cpu time    0.11: real time    0.11
    MIXING:  cpu time    0.04: real time    0.04
    --------------------------------------------
      LOOP:  cpu time    2.43: real time    2.43

 eigenvalue-minimisations  :    47
 total energy-change (2. order) :-0.6407180E+00  (-0.1642621E-01)
 number of electron      11.0000005 magnetization       1.9364209
 augmentation part        0.5587655 magnetization      -0.5756144

 Broyden mixing:
  rms(total) = 0.71865E+00    rms(broyden)= 0.71840E+00
  rms(prec ) = 0.86318E+00
  weight for this iteration     100.00

 eigenvalues of (default mixing * dielectric matrix)
  average eigenvalue GAMMA=   0.4662
  0.5828  0.5828  0.3497  0.3497

 Free energy of the ion-electron system (eV)
  ---------------------------------------------------
  alpha Z        PSCENC =         0.45022818
  Ewald energy   TEWEN  =       -30.65519188
  -1/2 Hartree   DENC   =      -568.59354758
  -exchange  EXHF       =         0.00000000
  -V(xc)+E(xc)   XCENC  =        44.46714367
  PAW double counting   =       567.26169073     -570.21659242
  entropy T*S    EENTRO =        -0.11287519
  eigenvalues    EBANDS =      -144.45352573
  atomic energy  EATOM  =       696.73819845
  ---------------------------------------------------
  free energy    TOTEN  =        -5.11447177 eV

  energy without entropy =       -5.00159658  energy(sigma->0) =       -5.05803418


--------------------------------------------------------------------------------------------------------




----------------------------------------- Iteration    1(  10)  ---------------------------------------


    POTLOK:  cpu time    1.66: real time    1.66
    SETDIJ:  cpu time    0.02: real time    0.02
    EDDIAG:  cpu time    0.10: real time    0.10
  RMM-DIIS:  cpu time    0.52: real time    0.52
    ORTHCH:  cpu time    0.01: real time    0.01
       DOS:  cpu time    0.00: real time    0.00
    CHARGE:  cpu time    0.11: real time    0.11
    MIXING:  cpu time    0.04: real time    0.04
    --------------------------------------------
      LOOP:  cpu time    2.45: real time    2.45

 eigenvalue-minimisations  :    50
 total energy-change (2. order) :-0.1413174E+00  (-0.6021757E-02)
 number of electron      11.0000003 magnetization       3.1044183
 augmentation part        0.5632711 magnetization       0.5990174

 Broyden mixing:
  rms(total) = 0.61459E+00    rms(broyden)= 0.61456E+00
  rms(prec ) = 0.75306E+00
  weight for this iteration     100.00

 eigenvalues of (default mixing * dielectric matrix)
  average eigenvalue GAMMA=   0.7157
  1.0626  1.0626  0.4389  0.5071  0.5071

 Free energy of the ion-electron system (eV)
  ---------------------------------------------------
  alpha Z        PSCENC =         0.45022818
  Ewald energy   TEWEN  =       -30.65519188
  -1/2 Hartree   DENC   =      -568.20449267
  -exchange  EXHF       =         0.00000000
  -V(xc)+E(xc)   XCENC  =        44.43204786
  PAW double counting   =       566.82802612     -569.76467092
  entropy T*S    EENTRO =        -0.11283307
  eigenvalues    EBANDS =      -144.96710128
  atomic energy  EATOM  =       696.73819845
  ---------------------------------------------------
  free energy    TOTEN  =        -5.25578920 eV

  energy without entropy =       -5.14295613  energy(sigma->0) =       -5.19937266


--------------------------------------------------------------------------------------------------------




----------------------------------------- Iteration    1(  11)  ---------------------------------------


    POTLOK:  cpu time    1.66: real time    1.66
    SETDIJ:  cpu time    0.02: real time    0.02
    EDDIAG:  cpu time    0.10: real time    0.10
  RMM-DIIS:  cpu time    0.48: real time    0.48
    ORTHCH:  cpu time    0.00: real time    0.01
       DOS:  cpu time    0.00: real time    0.00
    CHARGE:  cpu time    0.11: real time    0.11
    MIXING:  cpu time    0.04: real time    0.04
    --------------------------------------------
      LOOP:  cpu time    2.41: real time    2.42

 eigenvalue-minimisations  :    46
 total energy-change (2. order) : 0.9531692E+00  (-0.1223528E+00)
 number of electron      11.0000000 magnetization       3.0912856
 augmentation part        0.5936059 magnetization       0.2422716

 Broyden mixing:
  rms(total) = 0.38527E+00    rms(broyden)= 0.38430E+00
  rms(prec ) = 0.51951E+00
  weight for this iteration     100.00

 eigenvalues of (default mixing * dielectric matrix)
  average eigenvalue GAMMA=   0.7017
  1.0753  1.0753  0.6103  0.6103  0.4194  0.4194

 Free energy of the ion-electron system (eV)
  ---------------------------------------------------
  alpha Z        PSCENC =         0.45022818
  Ewald energy   TEWEN  =       -30.65519188
  -1/2 Hartree   DENC   =      -567.32092216
  -exchange  EXHF       =         0.00000000
  -V(xc)+E(xc)   XCENC  =        46.01778562
  PAW double counting   =       568.00747317     -570.82384904
  entropy T*S    EENTRO =        -0.15040548
  eigenvalues    EBANDS =      -146.56593689
  atomic energy  EATOM  =       696.73819845
  ---------------------------------------------------
  free energy    TOTEN  =        -4.30262002 eV

  energy without entropy =       -4.15221455  energy(sigma->0) =       -4.22741728


--------------------------------------------------------------------------------------------------------




----------------------------------------- Iteration    1(  12)  ---------------------------------------


    POTLOK:  cpu time    1.66: real time    1.66
    SETDIJ:  cpu time    0.02: real time    0.02
    EDDIAG:  cpu time    0.10: real time    0.10
  RMM-DIIS:  cpu time    0.50: real time    0.50
    ORTHCH:  cpu time    0.01: real time    0.01
       DOS:  cpu time    0.00: real time    0.00
    CHARGE:  cpu time    0.11: real time    0.11
    MIXING:  cpu time    0.04: real time    0.05
    --------------------------------------------
      LOOP:  cpu time    2.44: real time    2.45

 eigenvalue-minimisations  :    49
 total energy-change (2. order) :-0.2828620E+00  (-0.5309596E-02)
 number of electron      11.0000000 magnetization       3.4565419
 augmentation part        0.5984407 magnetization       0.8740782

 Broyden mixing:
  rms(total) = 0.27945E+00    rms(broyden)= 0.27905E+00
  rms(prec ) = 0.34777E+00
  weight for this iteration     100.00

 eigenvalues of (default mixing * dielectric matrix)
  average eigenvalue GAMMA=   0.6995
  0.8838  0.8838  0.9482  0.9482  0.4495  0.4495  0.3338

 Free energy of the ion-electron system (eV)
  ---------------------------------------------------
  alpha Z        PSCENC =         0.45022818
  Ewald energy   TEWEN  =       -30.65519188
  -1/2 Hartree   DENC   =      -568.05484020
  -exchange  EXHF       =         0.00000000
  -V(xc)+E(xc)   XCENC  =        45.75764016
  PAW double counting   =       569.73576344     -572.57549800
  entropy T*S    EENTRO =        -0.12849170
  eigenvalues    EBANDS =      -145.85329046
  atomic energy  EATOM  =       696.73819845
  ---------------------------------------------------
  free energy    TOTEN  =        -4.58548201 eV

  energy without entropy =       -4.45699031  energy(sigma->0) =       -4.52123616


--------------------------------------------------------------------------------------------------------




----------------------------------------- Iteration    1(  13)  ---------------------------------------


    POTLOK:  cpu time    1.66: real time    1.66
    SETDIJ:  cpu time    0.02: real time    0.02
    EDDIAG:  cpu time    0.10: real time    0.11
  RMM-DIIS:  cpu time    0.49: real time    0.49
    ORTHCH:  cpu time    0.01: real time    0.01
       DOS:  cpu time    0.00: real time    0.00
    CHARGE:  cpu time    0.11: real time    0.11
    MIXING:  cpu time    0.05: real time    0.05
    --------------------------------------------
      LOOP:  cpu time    2.43: real time    2.43

 eigenvalue-minimisations  :    47
 total energy-change (2. order) : 0.1472346E+00  (-0.6480291E-02)
 number of electron      11.0000001 magnetization       3.3126614
 augmentation part        0.6141752 magnetization       0.6043335

 Broyden mixing:
  rms(total) = 0.28884E+00    rms(broyden)= 0.28848E+00
  rms(prec ) = 0.30676E+00
  weight for this iteration     100.00

 eigenvalues of (default mixing * dielectric matrix)
  average eigenvalue GAMMA=   0.6829
  0.9135  0.9135  0.9634  0.9634  0.4109  0.4109  0.4439  0.4439

 Free energy of the ion-electron system (eV)
  ---------------------------------------------------
  alpha Z        PSCENC =         0.45022818
  Ewald energy   TEWEN  =       -30.65519188
  -1/2 Hartree   DENC   =      -568.61698737
  -exchange  EXHF       =         0.00000000
  -V(xc)+E(xc)   XCENC  =        46.08643119
  PAW double counting   =       572.93529292     -575.73933669
  entropy T*S    EENTRO =        -0.13843154
  eigenvalues    EBANDS =      -145.49845065
  atomic energy  EATOM  =       696.73819845
  ---------------------------------------------------
  free energy    TOTEN  =        -4.43824740 eV

  energy without entropy =       -4.29981585  energy(sigma->0) =       -4.36903162


--------------------------------------------------------------------------------------------------------




----------------------------------------- Iteration    1(  14)  ---------------------------------------


    POTLOK:  cpu time    1.66: real time    1.66
    SETDIJ:  cpu time    0.02: real time    0.02
    EDDIAG:  cpu time    0.10: real time    0.10
  RMM-DIIS:  cpu time    0.48: real time    0.49
    ORTHCH:  cpu time    0.01: real time    0.01
       DOS:  cpu time    0.00: real time    0.00
    CHARGE:  cpu time    0.11: real time    0.11
    MIXING:  cpu time    0.05: real time    0.05
    --------------------------------------------
      LOOP:  cpu time    2.43: real time    2.43

 eigenvalue-minimisations  :    47
 total energy-change (2. order) :-0.3498987E+00  (-0.3319147E-02)
 number of electron      11.0000004 magnetization       3.2628052
 augmentation part        0.6135519 magnetization       0.7473482

 Broyden mixing:
  rms(total) = 0.28562E+00    rms(broyden)= 0.28446E+00
  rms(prec ) = 0.29201E+00
  weight for this iteration     100.00

 eigenvalues of (default mixing * dielectric matrix)
  average eigenvalue GAMMA=   0.7060
  1.0153  1.0153  1.0100  1.0100  0.5511  0.5511  0.4146  0.4146  0.3723

 Free energy of the ion-electron system (eV)
  ---------------------------------------------------
  alpha Z        PSCENC =         0.45022818
  Ewald energy   TEWEN  =       -30.65519188
  -1/2 Hartree   DENC   =      -568.71679387
  -exchange  EXHF       =         0.00000000
  -V(xc)+E(xc)   XCENC  =        45.70571555
  PAW double counting   =       573.26962481     -576.09335926
  entropy T*S    EENTRO =        -0.10427100
  eigenvalues    EBANDS =      -145.38229709
  atomic energy  EATOM  =       696.73819845
  ---------------------------------------------------
  free energy    TOTEN  =        -4.78814611 eV

  energy without entropy =       -4.68387511  energy(sigma->0) =       -4.73601061


--------------------------------------------------------------------------------------------------------




----------------------------------------- Iteration    1(  15)  ---------------------------------------


    POTLOK:  cpu time    1.66: real time    1.66
    SETDIJ:  cpu time    0.02: real time    0.02
    EDDIAG:  cpu time    0.10: real time    0.11
  RMM-DIIS:  cpu time    0.49: real time    0.49
    ORTHCH:  cpu time    0.01: real time    0.01
       DOS:  cpu time    0.00: real time    0.00
    CHARGE:  cpu time    0.11: real time    0.11
    MIXING:  cpu time    0.06: real time    0.06
    --------------------------------------------
      LOOP:  cpu time    2.44: real time    2.44

 eigenvalue-minimisations  :    47
 total energy-change (2. order) :-0.1798930E+00  (-0.3790408E-02)
 number of electron      11.0000000 magnetization       3.2593160
 augmentation part        0.6139701 magnetization       0.7469501

 Broyden mixing:
  rms(total) = 0.21149E+00    rms(broyden)= 0.21004E+00
  rms(prec ) = 0.21381E+00
  weight for this iteration     100.00

 eigenvalues of (default mixing * dielectric matrix)
  average eigenvalue GAMMA=   0.7245
  1.0545  1.0545  1.0097  1.0097  0.7100  0.7100  0.4668  0.4668  0.3587  0.4042

 Free energy of the ion-electron system (eV)
  ---------------------------------------------------
  alpha Z        PSCENC =         0.45022818
  Ewald energy   TEWEN  =       -30.65519188
  -1/2 Hartree   DENC   =      -568.95083773
  -exchange  EXHF       =         0.00000000
  -V(xc)+E(xc)   XCENC  =        45.50507741
  PAW double counting   =       573.84116546     -576.67904585
  entropy T*S    EENTRO =        -0.11248159
  eigenvalues    EBANDS =      -145.10515159
  atomic energy  EATOM  =       696.73819845
  ---------------------------------------------------
  free energy    TOTEN  =        -4.96803914 eV

  energy without entropy =       -4.85555755  energy(sigma->0) =       -4.91179835


--------------------------------------------------------------------------------------------------------




----------------------------------------- Iteration    1(  16)  ---------------------------------------


    POTLOK:  cpu time    1.66: real time    1.66
    SETDIJ:  cpu time    0.02: real time    0.02
    EDDIAG:  cpu time    0.10: real time    0.10
  RMM-DIIS:  cpu time    0.51: real time    0.51
    ORTHCH:  cpu time    0.00: real time    0.01
       DOS:  cpu time    0.00: real time    0.00
    CHARGE:  cpu time    0.11: real time    0.11
    MIXING:  cpu time    0.06: real time    0.06
    --------------------------------------------
      LOOP:  cpu time    2.46: real time    2.46

 eigenvalue-minimisations  :    49
 total energy-change (2. order) :-0.1558580E+00  (-0.2133796E-02)
 number of electron      10.9999999 magnetization       3.1615956
 augmentation part        0.6151450 magnetization       0.6419830

 Broyden mixing:
  rms(total) = 0.16269E+00    rms(broyden)= 0.16216E+00
  rms(prec ) = 0.16484E+00
  weight for this iteration     100.00

 eigenvalues of (default mixing * dielectric matrix)
  average eigenvalue GAMMA=   0.8824
  2.2126  1.1911  1.1911  0.9648  0.9648  0.7203  0.7203  0.4819  0.4819  0.3722
  0.4054

 Free energy of the ion-electron system (eV)
  ---------------------------------------------------
  alpha Z        PSCENC =         0.45022818
  Ewald energy   TEWEN  =       -30.65519188
  -1/2 Hartree   DENC   =      -568.92552827
  -exchange  EXHF       =         0.00000000
  -V(xc)+E(xc)   XCENC  =        45.36142824
  PAW double counting   =       574.90593238     -577.73172150
  entropy T*S    EENTRO =        -0.11284278
  eigenvalues    EBANDS =      -145.15439996
  atomic energy  EATOM  =       696.73819845
  ---------------------------------------------------
  free energy    TOTEN  =        -5.12389713 eV

  energy without entropy =       -5.01105435  energy(sigma->0) =       -5.06747574


--------------------------------------------------------------------------------------------------------




----------------------------------------- Iteration    1(  17)  ---------------------------------------


    POTLOK:  cpu time    1.66: real time    1.66
    SETDIJ:  cpu time    0.02: real time    0.02
    EDDIAG:  cpu time    0.10: real time    0.10
  RMM-DIIS:  cpu time    0.46: real time    0.45
    ORTHCH:  cpu time    0.01: real time    0.01
       DOS:  cpu time    0.00: real time    0.00
    CHARGE:  cpu time    0.11: real time    0.11
    MIXING:  cpu time    0.06: real time    0.06
    --------------------------------------------
      LOOP:  cpu time    2.41: real time    2.41

 eigenvalue-minimisations  :    44
 total energy-change (2. order) :-0.1779588E+00  (-0.3064782E-02)
 number of electron      10.9999998 magnetization       2.9786135
 augmentation part        0.6166872 magnetization       0.4530305

 Broyden mixing:
  rms(total) = 0.99424E-01    rms(broyden)= 0.99079E-01
  rms(prec ) = 0.10256E+00
  weight for this iteration     100.00

 eigenvalues of (default mixing * dielectric matrix)
  average eigenvalue GAMMA=   0.9687
  2.7432  1.1701  1.1701  1.3307  0.9651  0.9651  0.4051  0.8303  0.7000  0.4862
  0.4862  0.3730

 Free energy of the ion-electron system (eV)
  ---------------------------------------------------
  alpha Z        PSCENC =         0.45022818
  Ewald energy   TEWEN  =       -30.65519188
  -1/2 Hartree   DENC   =      -568.38613330
  -exchange  EXHF       =         0.00000000
  -V(xc)+E(xc)   XCENC  =        45.11671560
  PAW double counting   =       574.25206741     -577.07408168
  entropy T*S    EENTRO =        -0.11277737
  eigenvalues    EBANDS =      -145.63088132
  atomic energy  EATOM  =       696.73819845
  ---------------------------------------------------
  free energy    TOTEN  =        -5.30185592 eV

  energy without entropy =       -5.18907855  energy(sigma->0) =       -5.24546723


--------------------------------------------------------------------------------------------------------




----------------------------------------- Iteration    1(  18)  ---------------------------------------


    POTLOK:  cpu time    1.66: real time    1.66
    SETDIJ:  cpu time    0.02: real time    0.02
    EDDIAG:  cpu time    0.10: real time    0.10
  RMM-DIIS:  cpu time    0.47: real time    0.47
    ORTHCH:  cpu time    0.01: real time    0.01
       DOS:  cpu time    0.00: real time    0.00
    CHARGE:  cpu time    0.11: real time    0.11
    MIXING:  cpu time    0.07: real time    0.07
    --------------------------------------------
      LOOP:  cpu time    2.43: real time    2.44

 eigenvalue-minimisations  :    46
 total energy-change (2. order) :-0.9239821E-01  (-0.3799027E-02)
 number of electron      10.9999999 magnetization       2.9461599
 augmentation part        0.6149318 magnetization       0.4159952

 Broyden mixing:
  rms(total) = 0.40795E-01    rms(broyden)= 0.40174E-01
  rms(prec ) = 0.43266E-01
  weight for this iteration     100.00

 eigenvalues of (default mixing * dielectric matrix)
  average eigenvalue GAMMA=   0.9958
  2.5022  2.5022  1.1592  1.1592  0.9559  0.9559  0.4051  0.6847  0.6847  0.5922
  0.4855  0.4855  0.3727

 Free energy of the ion-electron system (eV)
  ---------------------------------------------------
  alpha Z        PSCENC =         0.45022818
  Ewald energy   TEWEN  =       -30.65519188
  -1/2 Hartree   DENC   =      -567.85139468
  -exchange  EXHF       =         0.00000000
  -V(xc)+E(xc)   XCENC  =        44.89782172
  PAW double counting   =       572.62781052     -575.44220876
  entropy T*S    EENTRO =        -0.11281010
  eigenvalues    EBANDS =      -146.04670758
  atomic energy  EATOM  =       696.73819845
  ---------------------------------------------------
  free energy    TOTEN  =        -5.39425413 eV

  energy without entropy =       -5.28144403  energy(sigma->0) =       -5.33784908


--------------------------------------------------------------------------------------------------------




----------------------------------------- Iteration    1(  19)  ---------------------------------------


    POTLOK:  cpu time    1.65: real time    1.65
    SETDIJ:  cpu time    0.02: real time    0.02
    EDDIAG:  cpu time    0.10: real time    0.10
  RMM-DIIS:  cpu time    0.53: real time    0.53
    ORTHCH:  cpu time    0.01: real time    0.01
       DOS:  cpu time    0.00: real time    0.00
    CHARGE:  cpu time    0.11: real time    0.11
    MIXING:  cpu time    0.07: real time    0.07
    --------------------------------------------
      LOOP:  cpu time    2.49: real time    2.49

 eigenvalue-minimisations  :    52
 total energy-change (2. order) :-0.9792713E-02  (-0.4837382E-03)
 number of electron      10.9999999 magnetization       2.9498092
 augmentation part        0.6131804 magnetization       0.4165749

 Broyden mixing:
  rms(total) = 0.34178E-01    rms(broyden)= 0.33929E-01
  rms(prec ) = 0.35082E-01
  weight for this iteration     100.00

 eigenvalues of (default mixing * dielectric matrix)
  average eigenvalue GAMMA=   0.9546
  2.5868  2.5868  1.1597  1.1597  0.9626  0.9626  0.4051  0.6696  0.6696  0.5768
  0.4871  0.4871  0.3725  0.2783

 Free energy of the ion-electron system (eV)
  ---------------------------------------------------
  alpha Z        PSCENC =         0.45022818
  Ewald energy   TEWEN  =       -30.65519188
  -1/2 Hartree   DENC   =      -567.97896679
  -exchange  EXHF       =         0.00000000
  -V(xc)+E(xc)   XCENC  =        44.87944957
  PAW double counting   =       572.55290535     -575.37645205
  entropy T*S    EENTRO =        -0.11283026
  eigenvalues    EBANDS =      -145.90138742
  atomic energy  EATOM  =       696.73819845
  ---------------------------------------------------
  free energy    TOTEN  =        -5.40404684 eV

  energy without entropy =       -5.29121658  energy(sigma->0) =       -5.34763171


--------------------------------------------------------------------------------------------------------




----------------------------------------- Iteration    1(  20)  ---------------------------------------


    POTLOK:  cpu time    1.65: real time    1.65
    SETDIJ:  cpu time    0.02: real time    0.02
    EDDIAG:  cpu time    0.10: real time    0.10
  RMM-DIIS:  cpu time    0.44: real time    0.43
    ORTHCH:  cpu time    0.00: real time    0.01
       DOS:  cpu time    0.00: real time    0.00
    CHARGE:  cpu time    0.11: real time    0.11
    MIXING:  cpu time    0.08: real time    0.08
    --------------------------------------------
      LOOP:  cpu time    2.40: real time    2.40

 eigenvalue-minimisations  :    41
 total energy-change (2. order) :-0.2261780E-02  (-0.4338168E-04)
 number of electron      10.9999999 magnetization       2.9745374
 augmentation part        0.6124380 magnetization       0.4402000

 Broyden mixing:
  rms(total) = 0.31793E-01    rms(broyden)= 0.31701E-01
  rms(prec ) = 0.33277E-01
  weight for this iteration     100.00

 eigenvalues of (default mixing * dielectric matrix)
  average eigenvalue GAMMA=   1.0296
  2.9942  2.5815  1.1699  1.1699  1.0489  1.0489  0.4051  0.8580  0.8580  0.6874
  0.6874  0.4851  0.4851  0.3728  0.5926

 Free energy of the ion-electron system (eV)
  ---------------------------------------------------
  alpha Z        PSCENC =         0.45022818
  Ewald energy   TEWEN  =       -30.65519188
  -1/2 Hartree   DENC   =      -568.04706531
  -exchange  EXHF       =         0.00000000
  -V(xc)+E(xc)   XCENC  =        44.88626158
  PAW double counting   =       572.57919359     -575.40347327
  entropy T*S    EENTRO =        -0.11283368
  eigenvalues    EBANDS =      -145.84162628
  atomic energy  EATOM  =       696.73819845
  ---------------------------------------------------
  free energy    TOTEN  =        -5.40630862 eV

  energy without entropy =       -5.29347494  energy(sigma->0) =       -5.34989178


--------------------------------------------------------------------------------------------------------




----------------------------------------- Iteration    1(  21)  ---------------------------------------


    POTLOK:  cpu time    1.65: real time    1.65
    SETDIJ:  cpu time    0.02: real time    0.02
    EDDIAG:  cpu time    0.10: real time    0.10
  RMM-DIIS:  cpu time    0.47: real time    0.47
    ORTHCH:  cpu time    0.01: real time    0.01
       DOS:  cpu time    0.00: real time    0.00
    CHARGE:  cpu time    0.11: real time    0.11
    MIXING:  cpu time    0.08: real time    0.08
    --------------------------------------------
      LOOP:  cpu time    2.44: real time    2.44

 eigenvalue-minimisations  :    45
 total energy-change (2. order) : 0.5905817E-03  (-0.1322823E-03)
 number of electron      11.0000000 magnetization       2.9716250
 augmentation part        0.6123681 magnetization       0.4347056

 Broyden mixing:
  rms(total) = 0.28485E-01    rms(broyden)= 0.28216E-01
  rms(prec ) = 0.31351E-01
  weight for this iteration     100.00

 eigenvalues of (default mixing * dielectric matrix)
  average eigenvalue GAMMA=   1.1665
  4.2240  2.3286  1.6360  1.6360  1.1668  1.1668  0.4051  0.9650  0.9650  0.7798
  0.7798  0.3728  0.4853  0.4853  0.6658  0.6016

 Free energy of the ion-electron system (eV)
  ---------------------------------------------------
  alpha Z        PSCENC =         0.45022818
  Ewald energy   TEWEN  =       -30.65519188
  -1/2 Hartree   DENC   =      -568.08330431
  -exchange  EXHF       =         0.00000000
  -V(xc)+E(xc)   XCENC  =        44.91507043
  PAW double counting   =       572.49513929     -575.31603351
  entropy T*S    EENTRO =        -0.11283398
  eigenvalues    EBANDS =      -145.83699071
  atomic energy  EATOM  =       696.73819845
  ---------------------------------------------------
  free energy    TOTEN  =        -5.40571804 eV

  energy without entropy =       -5.29288406  energy(sigma->0) =       -5.34930105


--------------------------------------------------------------------------------------------------------




----------------------------------------- Iteration    1(  22)  ---------------------------------------


    POTLOK:  cpu time    1.65: real time    1.65
    SETDIJ:  cpu time    0.02: real time    0.02
    EDDIAG:  cpu time    0.10: real time    0.10
  RMM-DIIS:  cpu time    0.44: real time    0.43
    ORTHCH:  cpu time    0.00: real time    0.01
       DOS:  cpu time    0.00: real time    0.00
    CHARGE:  cpu time    0.11: real time    0.11
    MIXING:  cpu time    0.09: real time    0.09
    --------------------------------------------
      LOOP:  cpu time    2.41: real time    2.41

 eigenvalue-minimisations  :    42
 total energy-change (2. order) :-0.2168131E-02  (-0.4824865E-03)
 number of electron      11.0000000 magnetization       2.9752769
 augmentation part        0.6136988 magnetization       0.4324182

 Broyden mixing:
  rms(total) = 0.17876E-01    rms(broyden)= 0.16864E-01
  rms(prec ) = 0.18340E-01
  weight for this iteration     100.00

 eigenvalues of (default mixing * dielectric matrix)
  average eigenvalue GAMMA=   1.2092
  5.1257  2.9534  1.1658  1.1658  1.5083  1.5083  0.4051  0.9728  0.9728  0.7845
  0.7845  0.3728  0.4851  0.4851  0.6427  0.6427  0.5811

 Free energy of the ion-electron system (eV)
  ---------------------------------------------------
  alpha Z        PSCENC =         0.45022818
  Ewald energy   TEWEN  =       -30.65519188
  -1/2 Hartree   DENC   =      -568.16654069
  -exchange  EXHF       =         0.00000000
  -V(xc)+E(xc)   XCENC  =        44.93316386
  PAW double counting   =       572.36355010     -575.18396378
  entropy T*S    EENTRO =        -0.11283790
  eigenvalues    EBANDS =      -145.77449252
  atomic energy  EATOM  =       696.73819845
  ---------------------------------------------------
  free energy    TOTEN  =        -5.40788617 eV

  energy without entropy =       -5.29504828  energy(sigma->0) =       -5.35146722


--------------------------------------------------------------------------------------------------------




----------------------------------------- Iteration    1(  23)  ---------------------------------------


    POTLOK:  cpu time    1.65: real time    1.65
    SETDIJ:  cpu time    0.01: real time    0.02
    EDDIAG:  cpu time    0.11: real time    0.10
  RMM-DIIS:  cpu time    0.46: real time    0.46
    ORTHCH:  cpu time    0.01: real time    0.01
       DOS:  cpu time    0.00: real time    0.00
    CHARGE:  cpu time    0.11: real time    0.11
    MIXING:  cpu time    0.09: real time    0.09
    --------------------------------------------
      LOOP:  cpu time    2.44: real time    2.44

 eigenvalue-minimisations  :    44
 total energy-change (2. order) :-0.4658608E-02  (-0.7617906E-04)
 number of electron      11.0000000 magnetization       2.9874013
 augmentation part        0.6132425 magnetization       0.4435453

 Broyden mixing:
  rms(total) = 0.13782E-01    rms(broyden)= 0.13580E-01
  rms(prec ) = 0.15570E-01
  weight for this iteration     100.00

 eigenvalues of (default mixing * dielectric matrix)
  average eigenvalue GAMMA=   1.1747
  5.5025  2.8527  1.1655  1.1655  1.4916  1.4916  0.4051  0.9623  0.9623  0.7304
  0.7304  0.3728  0.4857  0.4857  0.5773  0.5773  0.5929  0.5929

 Free energy of the ion-electron system (eV)
  ---------------------------------------------------
  alpha Z        PSCENC =         0.45022818
  Ewald energy   TEWEN  =       -30.65519188
  -1/2 Hartree   DENC   =      -568.25428976
  -exchange  EXHF       =         0.00000000
  -V(xc)+E(xc)   XCENC  =        44.93625916
  PAW double counting   =       572.45053412     -575.27221407
  entropy T*S    EENTRO =        -0.11283735
  eigenvalues    EBANDS =      -145.69323162
  atomic energy  EATOM  =       696.73819845
  ---------------------------------------------------
  free energy    TOTEN  =        -5.41254478 eV

  energy without entropy =       -5.29970743  energy(sigma->0) =       -5.35612611


--------------------------------------------------------------------------------------------------------




----------------------------------------- Iteration    1(  24)  ---------------------------------------


    POTLOK:  cpu time    1.66: real time    1.65
    SETDIJ:  cpu time    0.02: real time    0.02
    EDDIAG:  cpu time    0.10: real time    0.10
  RMM-DIIS:  cpu time    0.36: real time    0.36
    ORTHCH:  cpu time    0.01: real time    0.01
       DOS:  cpu time    0.00: real time    0.00
    CHARGE:  cpu time    0.11: real time    0.11
    MIXING:  cpu time    0.10: real time    0.10
    --------------------------------------------
      LOOP:  cpu time    2.35: real time    2.35

 eigenvalue-minimisations  :    33
 total energy-change (2. order) :-0.1147475E-02  (-0.1200354E-04)
 number of electron      11.0000000 magnetization       3.0066056
 augmentation part        0.6132254 magnetization       0.4625648

 Broyden mixing:
  rms(total) = 0.90029E-02    rms(broyden)= 0.89789E-02
  rms(prec ) = 0.11181E-01
  weight for this iteration     100.00

 eigenvalues of (default mixing * dielectric matrix)
  average eigenvalue GAMMA=   1.2250
  5.3037  2.9542  1.6725  1.6725  1.1651  1.1651  0.4051  1.1083  1.1083  0.9474
  0.9474  0.7934  0.7934  0.3728  0.4852  0.4852  0.6525  0.6525  0.5903

 Free energy of the ion-electron system (eV)
  ---------------------------------------------------
  alpha Z        PSCENC =         0.45022818
  Ewald energy   TEWEN  =       -30.65519188
  -1/2 Hartree   DENC   =      -568.29711669
  -exchange  EXHF       =         0.00000000
  -V(xc)+E(xc)   XCENC  =        44.94475353
  PAW double counting   =       572.59804511     -575.42033535
  entropy T*S    EENTRO =        -0.11283741
  eigenvalues    EBANDS =      -145.65943620
  atomic energy  EATOM  =       696.73819845
  ---------------------------------------------------
  free energy    TOTEN  =        -5.41369226 eV

  energy without entropy =       -5.30085484  energy(sigma->0) =       -5.35727355


--------------------------------------------------------------------------------------------------------




----------------------------------------- Iteration    1(  25)  ---------------------------------------


    POTLOK:  cpu time    1.65: real time    1.65
    SETDIJ:  cpu time    0.02: real time    0.02
    EDDIAG:  cpu time    0.10: real time    0.10
  RMM-DIIS:  cpu time    0.37: real time    0.37
    ORTHCH:  cpu time    0.01: real time    0.01
       DOS:  cpu time    0.00: real time    0.00
    CHARGE:  cpu time    0.11: real time    0.11
    MIXING:  cpu time    0.11: real time    0.11
    --------------------------------------------
      LOOP:  cpu time    2.36: real time    2.37

 eigenvalue-minimisations  :    35
 total energy-change (2. order) :-0.4362580E-03  (-0.2390950E-04)
 number of electron      11.0000000 magnetization       3.0117969
 augmentation part        0.6132592 magnetization       0.4679539

 Broyden mixing:
  rms(total) = 0.44504E-02    rms(broyden)= 0.44243E-02
  rms(prec ) = 0.51839E-02
  weight for this iteration     100.00

 eigenvalues of (default mixing * dielectric matrix)
  average eigenvalue GAMMA=   1.2383
  4.8044  3.1663  2.0666  2.0666  1.1663  1.1663  1.2286  1.2286  0.4051  0.9597
  0.9597  0.8310  0.8310  0.6813  0.6813  0.3728  0.4852  0.4852  0.5901  0.5901

 Free energy of the ion-electron system (eV)
  ---------------------------------------------------
  alpha Z        PSCENC =         0.45022818
  Ewald energy   TEWEN  =       -30.65519188
  -1/2 Hartree   DENC   =      -568.38370807
  -exchange  EXHF       =         0.00000000
  -V(xc)+E(xc)   XCENC  =        44.95564811
  PAW double counting   =       572.99470092     -575.81827219
  entropy T*S    EENTRO =        -0.11283780
  eigenvalues    EBANDS =      -145.58289422
  atomic energy  EATOM  =       696.73819845
  ---------------------------------------------------
  free energy    TOTEN  =        -5.41412851 eV

  energy without entropy =       -5.30129071  energy(sigma->0) =       -5.35770961


--------------------------------------------------------------------------------------------------------




----------------------------------------- Iteration    1(  26)  ---------------------------------------


    POTLOK:  cpu time    1.65: real time    1.65
    SETDIJ:  cpu time    0.02: real time    0.02
    EDDIAG:  cpu time    0.10: real time    0.10
  RMM-DIIS:  cpu time    0.32: real time    0.32
    ORTHCH:  cpu time    0.01: real time    0.01
       DOS:  cpu time    0.00: real time    0.00
    --------------------------------------------
      LOOP:  cpu time    2.10: real time    2.10

 eigenvalue-minimisations  :    29
 total energy-change (2. order) :-0.5787729E-04  (-0.7545154E-05)
 number of electron      11.0000000 magnetization       3.0117969
 augmentation part        0.6132592 magnetization       0.4679539

 Free energy of the ion-electron system (eV)
  ---------------------------------------------------
  alpha Z        PSCENC =         0.45022818
  Ewald energy   TEWEN  =       -30.65519188
  -1/2 Hartree   DENC   =      -568.39914144
  -exchange  EXHF       =         0.00000000
  -V(xc)+E(xc)   XCENC  =        44.95821053
  PAW double counting   =       573.11162672     -575.93566838
  entropy T*S    EENTRO =        -0.11283774
  eigenvalues    EBANDS =      -145.56961084
  atomic energy  EATOM  =       696.73819845
  ---------------------------------------------------
  free energy    TOTEN  =        -5.41418639 eV

  energy without entropy =       -5.30134865  energy(sigma->0) =       -5.35776752


--------------------------------------------------------------------------------------------------------




 average (electrostatic) potential at core
  the test charge radii are     0.7089  0.7215
  (the norm of the test charge is              1.0000)
       1 -76.7141       2 -82.5161
 
 
 
 E-fermi :  -7.2073     XC(G=0):  -0.6969     alpha+bet : -0.1481


 spin component 1

 k-point   1 :       0.0000    0.0000    0.0000
  band No.  band energies     occupation 
      1     -23.8663      1.00000
      2     -20.3110      1.00000
      3      -9.7515      1.00000
      4      -9.4300      1.00000
      5      -9.4264      1.00000
      6      -8.4917      1.00000
      7      -8.4878      1.00000
      8      -6.3378      0.00000
      9      -0.4458      0.00000
     10       0.9957      0.00000

 spin component 2

 k-point   1 :       0.0000    0.0000    0.0000
  band No.  band energies     occupation 
      1     -22.4971      1.00000
      2     -17.0179      1.00000
      3      -9.0825      1.00000
      4      -7.2076      0.50071
      5      -7.2071      0.49929
      6      -5.1463      0.00000
      7      -5.0117      0.00000
      8      -5.0111      0.00000
      9      -0.2703      0.00000
     10       1.0429      0.00000


--------------------------------------------------------------------------------------------------------


 soft charge-density along one line, spin component           1
         0         1         2         3         4         5         6         7         8         9
 total charge-density along one line
 
 soft charge-density along one line, spin component           2
         0         1         2         3         4         5         6         7         8         9
 total charge-density along one line
 
 pseudopotential strength for first ion, spin component:           1
 14.633  17.586  -0.000   0.002  -0.000  -0.000  -0.000  -0.000
 17.586  21.137  -0.000   0.002  -0.000  -0.000  -0.000  -0.000
 -0.000  -0.000  -7.936   0.000   0.000 -11.128   0.000   0.000
  0.002   0.002   0.000  -7.849  -0.000   0.000 -10.986  -0.000
 -0.000  -0.000   0.000  -0.000  -7.936   0.000  -0.000 -11.128
 -0.000  -0.000 -11.128   0.000   0.000 -14.975   0.000   0.000
 -0.000  -0.000   0.000 -10.986  -0.000   0.000 -14.746  -0.000
 -0.000  -0.000   0.000  -0.000 -11.128   0.000  -0.000 -14.975
 pseudopotential strength for first ion, spin component:           2
 13.779  16.542   0.000  -0.004  -0.000   0.000  -0.007  -0.000
 16.542  19.861   0.000  -0.005  -0.000   0.000  -0.009  -0.000
  0.000   0.000  -7.429  -0.000   0.000 -10.327  -0.000   0.000
 -0.004  -0.005  -0.000  -7.662  -0.000  -0.000 -10.699  -0.000
 -0.000  -0.000   0.000  -0.000  -7.429   0.000  -0.000 -10.327
  0.000   0.000 -10.327  -0.000   0.000 -13.711  -0.000   0.000
 -0.007  -0.009  -0.000 -10.699  -0.000  -0.000 -14.299  -0.000
 -0.000  -0.000   0.000  -0.000 -10.327   0.000  -0.000 -13.711
 total augmentation occupancy for first ion, spin component:           1
  2.371  -0.203   0.000   0.156   0.000   0.000  -0.015   0.000
 -0.203   0.094   0.000  -0.230   0.000   0.000   0.020   0.000
  0.000   0.000   0.968   0.000   0.000   0.043   0.000   0.000
  0.156  -0.230   0.000   0.897   0.000   0.000  -0.051   0.000
  0.000   0.000   0.000   0.000   0.966   0.000   0.000   0.044
  0.000   0.000   0.043   0.000   0.000   0.003   0.000   0.000
 -0.015   0.020   0.000  -0.051   0.000   0.000   0.006   0.000
  0.000   0.000   0.000   0.000   0.044   0.000   0.000   0.003
 total augmentation occupancy for first ion, spin component:           2
 -0.315   0.171   0.000   0.013   0.000   0.000   0.008   0.000
  0.171  -0.033   0.000   0.003   0.000   0.000  -0.007   0.000
  0.000   0.000   0.892   0.000   0.000   0.051   0.000   0.000
  0.013   0.003   0.000   0.208   0.000   0.000   0.015   0.000
  0.000   0.000   0.000   0.000   0.891   0.000   0.000   0.051
  0.000   0.000   0.051   0.000   0.000   0.003   0.000   0.000
  0.008  -0.007   0.000   0.015   0.000   0.000  -0.002   0.000
  0.000   0.000   0.000   0.000   0.051   0.000   0.000   0.003


------------------------ aborting loop because EDIFF is reached ----------------------------------------


    CHARGE:  cpu time    0.11: real time    0.11
    FORLOC:  cpu time    0.05: real time    0.05
    FORNL :  cpu time    0.11: real time    0.11
    STRESS:  cpu time    0.36: real time    0.36
    FORCOR:  cpu time    1.73: real time    1.73
    FORHAR:  cpu time    0.18: real time    0.18
    MIXING:  cpu time    0.11: real time    0.11

  FORCE on cell =-STRESS in cart. coord.  units (eV):
  Direction    XX          YY          ZZ          XY          YZ          ZX
  --------------------------------------------------------------------------------------
  Alpha Z     0.45023     0.45023     0.45023
  Ewald     -77.16862   -81.73963   128.25304    -0.00000     0.00000    -0.00000
  Hartree   142.58271   138.10037   287.57522    -0.00000    -0.00000    -0.00000
  E(xc)     -48.47647   -48.47687   -48.13324    -0.00000    -0.00000    -0.00000
  Local    -219.05239  -209.95030  -557.68814    -0.00000     0.00000    -0.00000
  n-local   -27.88686   -27.86651   -23.51243     0.00000     0.00003    -0.00000
  augment     6.51859     6.51533     5.57414     0.00000     0.00000     0.00000
  Kinetic   221.68323   221.66468   198.95032    -0.00001    -0.00010     0.00000
  Fock        0.00000     0.00000     0.00000     0.00000     0.00000     0.00000
  -------------------------------------------------------------------------------------
  Total      -1.34958    -1.30269    -8.53086     0.00000     0.00000     0.00000
  in kB      -1.97952    -1.91075   -12.51283     0.00000     0.00000     0.00000
  external pressure =       -5.47 kB  Pullay stress =        0.00 kB


 VOLUME and BASIS-vectors are now :
 -----------------------------------------------------------------------------
  energy-cutoff  :      400.00
  volume of cell :     1092.32
      direct lattice vectors                 reciprocal lattice vectors
    10.100000000  0.000000000  0.000000000     0.099009901  0.000000000  0.000000000
     0.000000000 10.300000000  0.000000000     0.000000000  0.097087379  0.000000000
     0.000000000  0.000000000 10.500000000     0.000000000  0.000000000  0.095238095

  length of vectors
    10.100000000 10.300000000 10.500000000     0.099009901  0.097087379  0.095238095


 FORCES acting on ions
    electron-ion (+dipol)            ewald-force                    non-local-force                 convergence-correction
 -----------------------------------------------------------------------------------------------
   0.680E-14 0.960E-14 0.874E+02   0.892E-16 -.374E-16 -.944E+02   0.000E+00 0.000E+00 0.104E+02   0.195E-13 0.293E-13 0.239E-01
   0.533E-14 -.310E-14 -.859E+02   -.171E-16 0.408E-16 0.944E+02   0.000E+00 0.000E+00 -.119E+02   0.758E-14 0.191E-13 0.845E-02
 -----------------------------------------------------------------------------------------------
   0.121E-13 0.649E-14 0.146E+01   0.720E-16 0.346E-17 0.000E+00   0.000E+00 0.000E+00 -.149E+01   0.271E-13 0.484E-13 0.323E-01
 
 
 POSITION                                       TOTAL-FORCE (eV/Angst)
 -----------------------------------------------------------------------------------
      0.00000      0.00000      0.00000         0.000000      0.000000      3.518698
      0.00000      0.00000      2.10000         0.000000      0.000000     -3.518698
 -----------------------------------------------------------------------------------
    total drift:                                0.000000      0.000000      0.000640


--------------------------------------------------------------------------------------------------------



  FREE ENERGIE OF THE ION-ELECTRON SYSTEM (eV)
  ---------------------------------------------------
  free  energy   TOTEN  =        -5.41418639 eV

  energy  without entropy=       -5.30134865  energy(sigma->0) =       -5.35776752
 


--------------------------------------------------------------------------------------------------------


    POTLOK:  cpu time    1.67: real time    1.67


--------------------------------------------------------------------------------------------------------


     LOOP+:  cpu time   60.06: real time   60.10
    4ORBIT:  cpu time    0.00: real time    0.00

 total amount of memory used by VASP on root node   175530. kBytes
========================================================================

   base      :      30000. kBytes
   nonl-proj :       3171. kBytes
   fftplans  :      37440. kBytes
   grid      :      98560. kBytes
   one-center:         12. kBytes
   wavefun   :       6347. kBytes
 
  
  
 General timing and accounting informations for this job:
 ========================================================
  
                  Total CPU time used (sec):       61.572
                            User time (sec):       61.192
                          System time (sec):        0.380
                         Elapsed time (sec):       61.612
  
                   Maximum memory used (kb):      339916.
                   Average memory used (kb):           0.
  
                          Minor page faults:        74604
                          Major page faults:            0
                 Voluntary context switches:            2
