 vasp.5.3.3 18Dez12 (build Sep  7 2015 22:32:56) complex                        
  
 executed on             LinuxIFC date 2002.02.18  05:28:39
 running on    1 total cores
 distrk:  each k-point on    1 cores,    1 groups
 distr:  one band on NCORES_PER_BAND=   1 cores,    1 groups


--------------------------------------------------------------------------------------------------------


 INCAR:
 POTCAR:    PAW_PBE N 08Apr2002                   
 POTCAR:    PAW_PBE O 08Apr2002                   
 POTCAR:    PAW_PBE N 08Apr2002                   
   VRHFIN =N: s2p3                                                              
   LEXCH  = PE                                                                  
   EATOM  =   264.5486 eV,   19.4438 Ry                                         
                                                                                
   TITEL  = PAW_PBE N 08Apr2002                                                 
   LULTRA =        F    use ultrasoft PP ?                                      
   IUNSCR =        1    unscreen: 0-lin 1-nonlin 2-no                           
   RPACOR =    1.200    partial core radius                                     
   POMASS =   14.001; ZVAL   =    5.000    mass and valenz                      
   RCORE  =    1.500    outmost cutoff radius                                   
   RWIGS  =    1.400; RWIGS  =    0.741    wigner-seitz radius (au A)           
   ENMAX  =  400.000; ENMIN  =  300.000 eV                                      
   ICORE  =        2    local potential                                         
   LCOR   =        T    correct aug charges                                     
   LPAW   =        T    paw PP                                                  
   EAUG   =  627.112                                                            
   DEXC   =    0.000                                                            
   RMAX   =    1.529    core radius for proj-oper                               
   RAUG   =    1.300    factor for augmentation sphere                          
   RDEP   =    1.514    radius for radial grids                                 
   RDEPT  =    1.338    core radius for aug-charge                              
                                                                                
   Atomic configuration                                                         
    4 entries                                                                   
     n  l   j            E        occ.                                          
     1  0  0.50      -384.7179   2.0000                                         
     2  0  0.50       -18.5828   2.0000                                         
     2  1  0.50        -7.0898   3.0000                                         
     3  2  1.50        -6.8029   0.0000                                         
   Description                                                                  
     l       E           TYP  RCUT    TYP  RCUT                                 
     0    -18.5828119     23  1.200                                             
     0    -13.5018863     23  1.200                                             
     1     -7.0897853     23  1.500                                             
     1      9.5240782     23  1.500                                             
     2     -6.8029130      7  1.500                                             
  local pseudopotential read in
  partial core-charges read in
  partial kinetic energy density read in
  atomic valenz-charges read in
  non local Contribution for L=           0  read in
    real space projection operators read in
  non local Contribution for L=           0  read in
    real space projection operators read in
  non local Contribution for L=           1  read in
    real space projection operators read in
  non local Contribution for L=           1  read in
    real space projection operators read in
    PAW grid and wavefunctions read in
 
   number of l-projection  operators is LMAX  =           4
   number of lm-projection operators is LMMAX =           8
 
 POTCAR:    PAW_PBE O 08Apr2002                   
   VRHFIN =O: s2p4                                                              
   LEXCH  = PE                                                                  
   EATOM  =   432.3788 eV,   31.7789 Ry                                         
                                                                                
   TITEL  = PAW_PBE O 08Apr2002                                                 
   LULTRA =        F    use ultrasoft PP ?                                      
   IUNSCR =        1    unscreen: 0-lin 1-nonlin 2-no                           
   RPACOR =    1.200    partial core radius                                     
   POMASS =   16.000; ZVAL   =    6.000    mass and valenz                      
   RCORE  =    1.520    outmost cutoff radius                                   
   RWIGS  =    1.550; RWIGS  =    0.820    wigner-seitz radius (au A)           
   ENMAX  =  400.000; ENMIN  =  300.000 eV                                      
   ICORE  =        2    local potential                                         
   LCOR   =        T    correct aug charges                                     
   LPAW   =        T    paw PP                                                  
   EAUG   =  605.392                                                            
   DEXC   =    0.000                                                            
   RMAX   =    1.553    core radius for proj-oper                               
   RAUG   =    1.300    factor for augmentation sphere                          
   RDEP   =    1.550    radius for radial grids                                 
   RDEPT  =    1.329    core radius for aug-charge                              
                                                                                
   Atomic configuration                                                         
    4 entries                                                                   
     n  l   j            E        occ.                                          
     1  0  0.50      -514.6923   2.0000                                         
     2  0  0.50       -23.9615   2.0000                                         
     2  1  0.50        -9.0305   4.0000                                         
     3  2  1.50        -9.5241   0.0000                                         
   Description                                                                  
     l       E           TYP  RCUT    TYP  RCUT                                 
     0    -23.9615318     23  1.200                                             
     0     -9.5240782     23  1.200                                             
     1     -9.0304911     23  1.520                                             
     1      8.1634956     23  1.520                                             
     2     -9.5240782      7  1.500                                             
  local pseudopotential read in
  partial core-charges read in
  partial kinetic energy density read in
  kinetic energy density of atom read in
  atomic valenz-charges read in
  non local Contribution for L=           0  read in
    real space projection operators read in
  non local Contribution for L=           0  read in
    real space projection operators read in
  non local Contribution for L=           1  read in
    real space projection operators read in
  non local Contribution for L=           1  read in
    real space projection operators read in
    PAW grid and wavefunctions read in
 
   number of l-projection  operators is LMAX  =           4
   number of lm-projection operators is LMMAX =           8
 
  PAW_PBE N 08Apr2002                   :
 energy of atom  1       EATOM= -264.5486
 kinetic energy error for atom=    0.0736 (will be added to EATOM!!)
  PAW_PBE O 08Apr2002                   :
 energy of atom  2       EATOM= -432.3788
 kinetic energy error for atom=    0.1156 (will be added to EATOM!!)
 
 
 POSCAR: CO molecule in a box                    
  positions in cartesian coordinates
  No initial velocities read in
 exchange correlation table for  LEXCH =        8
   RHO(1)=    0.500       N(1)  =     2000
   RHO(2)=  100.500       N(2)  =     4000
 


--------------------------------------------------------------------------------------------------------


 ion  position               nearest neighbor table
   1  0.000  0.000  0.000-   2 1.20
   2  0.000  0.000  0.114-   1 1.20
 
  LATTYP: Found a simple orthorhombic cell.
 ALAT       =    10.1000000000
 B/A-ratio  =     1.0198019802
 C/A-ratio  =     1.0396039604
  
  Lattice vectors:
  
 A1 = (  10.1000000000,   0.0000000000,   0.0000000000)
 A2 = (   0.0000000000,  10.3000000000,   0.0000000000)
 A3 = (   0.0000000000,   0.0000000000,  10.5000000000)


Analysis of symmetry for initial positions (statically):
=====================================================================
 Subroutine PRICEL returns:
 Original cell was already a primitive cell.
 

 Routine SETGRP: Setting up the symmetry group for a 
 simple orthorhombic supercell.


 Subroutine GETGRP returns: Found  4 space group operations
 (whereof  4 operations were pure point group operations)
 out of a pool of  8 trial point group operations.


The static configuration has the point symmetry C_2v.


Analysis of symmetry for dynamics (positions and initial velocities):
=====================================================================
 Subroutine PRICEL returns:
 Original cell was already a primitive cell.
 

 Routine SETGRP: Setting up the symmetry group for a 
 simple orthorhombic supercell.


 Subroutine GETGRP returns: Found  4 space group operations
 (whereof  4 operations were pure point group operations)
 out of a pool of  8 trial point group operations.


The dynamic configuration has the point symmetry C_2v.


Analysis of constrained symmetry for selective dynamics:
=====================================================================
 Subroutine PRICEL returns:
 Original cell was already a primitive cell.
 

 Routine SETGRP: Setting up the symmetry group for a 
 simple orthorhombic supercell.


 Subroutine GETGRP returns: Found  4 space group operations
 (whereof  4 operations were pure point group operations)
 out of a pool of  8 trial point group operations.


The constrained configuration has the point symmetry C_2v.


Analysis of magnetic symmetry:
=====================================================================

 Subroutine MAGSYM returns: Found  4 space group operations
 (whereof  4 operations were pure point group operations)
 out of a pool of  4 trial space group operations
 (whereof  4 operations were pure point group operations)
 and found also     1 'primitive' translations


The magnetic configuration has the point symmetry C_2v.


 irot  :   1
 --------------------------------------------------------------------
 isymop:   1   0   0
           0   1   0
           0   0   1

 gtrans:     0.0000000     0.0000000     0.0000000

 ptrans:     0.0000000     0.0000000     0.0000000
 rotmap:
 (   1->   1)  (   2->   2) 


 irot  :   2
 --------------------------------------------------------------------
 isymop:  -1   0   0
           0  -1   0
           0   0   1

 gtrans:     0.0000000     0.0000000     0.0000000

 ptrans:     0.0000000     0.0000000     0.0000000
 rotmap:
 (   1->   1)  (   2->   2) 


 irot  :   3
 --------------------------------------------------------------------
 isymop:   1   0   0
           0  -1   0
           0   0   1

 gtrans:     0.0000000     0.0000000     0.0000000

 ptrans:     0.0000000     0.0000000     0.0000000
 rotmap:
 (   1->   1)  (   2->   2) 


 irot  :   4
 --------------------------------------------------------------------
 isymop:  -1   0   0
           0   1   0
           0   0   1

 gtrans:     0.0000000     0.0000000     0.0000000

 ptrans:     0.0000000     0.0000000     0.0000000
 rotmap:
 (   1->   1)  (   2->   2) 
 
 
 KPOINTS: Gamma-point only                        

Automatic generation of k-mesh.
Space group operators:
 irot       det(A)        alpha          n_x          n_y          n_z        tau_x        tau_y        tau_z
    1     1.000000     0.000000     1.000000     0.000000     0.000000     0.000000     0.000000     0.000000
    2     1.000000   180.000000     0.000000     0.000000     1.000000     0.000000     0.000000     0.000000
    3    -1.000000   180.000000     0.000000     1.000000     0.000000     0.000000     0.000000     0.000000
    4    -1.000000   180.000000     1.000000     0.000000     0.000000     0.000000     0.000000     0.000000
 
 Subroutine IBZKPT returns following result:
 ===========================================
 
 Found      1 irreducible k-points:
 
 Following reciprocal coordinates:
            Coordinates               Weight
  0.000000  0.000000  0.000000      1.000000
 
 Following cartesian coordinates:
            Coordinates               Weight
  0.000000  0.000000  0.000000      1.000000
 


--------------------------------------------------------------------------------------------------------




 Dimension of arrays:
   k-points           NKPTS =      1   k-points in BZ     NKDIM =      1   number of bands    NBANDS=     10
   number of dos      NEDOS =    301   number of ions     NIONS =      2
   non local maximal  LDIM  =      4   non local SUM 2l+1 LMDIM =      8
   total plane-waves  NPLWV = 135000
   max r-space proj   IRMAX =      1   max aug-charges    IRDMAX=   1803
   dimension x,y,z NGX =    50 NGY =   50 NGZ =   54
   dimension x,y,z NGXF=   100 NGYF=  100 NGZF=  108
   support grid    NGXF=   100 NGYF=  100 NGZF=  108
   ions per type =               1   1
 NGX,Y,Z   is equivalent  to a cutoff of   8.23,  8.07,  8.55 a.u.
 NGXF,Y,Z  is equivalent  to a cutoff of  16.46, 16.14, 17.10 a.u.


 I would recommend the setting:
   dimension x,y,z NGX =    49 NGY =   50 NGZ =   51
 SYSTEM =  Hello World                             
 POSCAR =  CO molecule in a box                    

 Startparameter for this run:
   NWRITE =      2    write-flag & timer
   PREC   = normal    normal or accurate (medium, high low for compatibility)
   ISTART =      0    job   : 0-new  1-cont  2-samecut
   ICHARG =      2    charge: 1-file 2-atom 10-const
   ISPIN  =      2    spin polarized calculation?
   LNONCOLLINEAR =      F non collinear calculations
   LSORBIT =      F    spin-orbit coupling
   INIWAV =      1    electr: 0-lowe 1-rand  2-diag
   LASPH  =      F    aspherical Exc in radial PAW
   METAGGA=      F    non-selfconsistent MetaGGA calc.

 Electronic Relaxation 1
   ENCUT  =  400.0 eV  29.40 Ry    5.42 a.u.  16.47 16.80 17.12*2*pi/ulx,y,z
   ENINI  =  400.0     initial cutoff
   ENAUG  =  627.1 eV  augmentation charge cutoff
   NELM   =     60;   NELMIN=  2; NELMDL=  0     # of ELM steps 
   EDIFF  = 0.1E-03   stopping-criterion for ELM
   LREAL  =      F    real-space projection
   NLSPLINE    = F    spline interpolate recip. space projectors
   LCOMPAT=      F    compatible to vasp.4.4
   GGA_COMPAT  = T    GGA compatible to vasp.4.4-vasp.4.6
   LMAXPAW     = -100 max onsite density
   LMAXMIX     =    2 max onsite mixed and CHGCAR
   VOSKOWN=      0    Vosko Wilk Nusair interpolation
   ROPT   =    0.00000   0.00000
 Ionic relaxation
   EDIFFG = -.1E-01   stopping-criterion for IOM
   NSW    =      0    number of steps for IOM
   NBLOCK =      1;   KBLOCK =      1    inner block; outer block 
   IBRION =     -1    ionic relax: 0-MD 1-quasi-New 2-CG
   NFREE  =      0    steps in history (QN), initial steepest desc. (CG)
   ISIF   =      2    stress and relaxation
   IWAVPR =     10    prediction:  0-non 1-charg 2-wave 3-comb
   ISYM   =      2    0-nonsym 1-usesym 2-fastsym
   LCORR  =      T    Harris-Foulkes like correction to forces

   POTIM  = 0.5000    time-step for ionic-motion
   TEIN   =    0.0    initial temperature
   TEBEG  =    0.0;   TEEND  =   0.0 temperature during run
   SMASS  =  -3.00    Nose mass-parameter (am)
   estimated Nose-frequenzy (Omega)   =  0.10E-29 period in steps =****** mass=  -0.233E-26a.u.
   SCALEE = 1.0000    scale energy and forces
   NPACO  =    256;   APACO  = 16.0  distance and # of slots for P.C.
   PSTRESS=    0.0 pullay stress

  Mass of Ions in am
   POMASS =  14.00 16.00
  Ionic Valenz
   ZVAL   =   5.00  6.00
  Atomic Wigner-Seitz radii
   RWIGS  =  -1.00 -1.00
  virtual crystal weights 
   VCA    =   1.00  1.00
   NELECT =      11.0000    total number of electrons
   NUPDOWN=      -1.0000    fix difference up-down

 DOS related values:
   EMIN   =  10.00;   EMAX   =-10.00  energy-range for DOS
   EFERMI =   0.00
   ISMEAR =     0;   SIGMA  =   0.20  broadening in eV -4-tet -1-fermi 0-gaus

 Electronic relaxation 2 (details)
   IALGO  =     68    algorithm
   LDIAG  =      T    sub-space diagonalisation (order eigenvalues)
   LSUBROT=      T    optimize rotation matrix (better conditioning)
   TURBO    =      0    0=normal 1=particle mesh
   IRESTART =      0    0=no restart 2=restart with 2 vectors
   NREBOOT  =      0    no. of reboots
   NMIN     =      0    reboot dimension
   EREF     =   0.00    reference energy to select bands
   IMIX   =      4    mixing-type and parameters
     AMIX     =   0.40;   BMIX     =  1.00
     AMIX_MAG =   1.60;   BMIX_MAG =  1.00
     AMIN     =   0.10
     WC   =   100.;   INIMIX=   1;  MIXPRE=   1;  MAXMIX= -45

 Intra band minimization:
   WEIMIN = 0.0000     energy-eigenvalue tresh-hold
   EBREAK =  0.25E-05  absolut break condition
   DEPER  =   0.30     relativ break condition  

   TIME   =   0.40     timestep for ELM

  volume/ion in A,a.u.               =     546.16      3685.65
  Fermi-wavevector in a.u.,A,eV,Ry     =   0.353527  0.668070  1.700478  0.124982
  Thomas-Fermi vector in A             =   1.267843
 
 Write flags
   LWAVE  =      F    write WAVECAR
   LCHARG =      F    write CHGCAR
   LVTOT  =      F    write LOCPOT, total local potential
   LVHAR  =      F    write LOCPOT, Hartree potential only
   LELF   =      F    write electronic localiz. function (ELF)
   LORBIT =      0    0 simple, 1 ext, 2 COOP (PROOUT)


 Dipole corrections
   LMONO  =      F    monopole corrections only (constant potential shift)
   LDIPOL =      F    correct potential (dipole corrections)
   IDIPOL =      0    1-x, 2-y, 3-z, 4-all directions 
   EPSILON=  1.0000000 bulk dielectric constant

 Exchange correlation treatment:
   GGA     =    --    GGA type
   LEXCH   =     8    internal setting for exchange type
   VOSKOWN=      0    Vosko Wilk Nusair interpolation
   LHFCALC =     F    Hartree Fock is set to
   LHFONE  =     F    Hartree Fock one center treatment
   AEXX    =    0.0000 exact exchange contribution

 Linear response parameters
   LEPSILON=     F    determine dielectric tensor
   LRPA    =     F    only Hartree local field effects (RPA)
   LNABLA  =     F    use nabla operator in PAW spheres
   LVEL    =     F    velocity operator in full k-point grid
   LINTERFAST=   F  fast interpolation
   KINTER  =     0    interpolate to denser k-point grid
   CSHIFT  =0.1000    complex shift for real part using Kramers Kronig
   OMEGAMAX=  -1.0    maximum frequency
   DEG_THRESHOLD= 0.2000000E-02 threshold for treating states as degnerate
   RTIME   =    0.100 relaxation time in fs

 Orbital magnetization related:
   ORBITALMAG=     F  switch on orbital magnetization
   LCHIMAG   =     F  perturbation theory with respect to B field
   DQ        =  0.001000  dq finite difference perturbation B field



--------------------------------------------------------------------------------------------------------


 Static calculation
 charge density and potential will be updated during run
 spin polarized calculation
 RMM-DIIS sequential band-by-band and
  variant of blocked Davidson during initial phase
 perform sub-space diagonalisation
    before iterative eigenvector-optimisation
 modified Broyden-mixing scheme, WC =      100.0
 initial mixing is a Kerker type mixing with AMIX =  0.4000 and BMIX =      1.0000
 Hartree-type preconditioning will be used
 using additional bands            4
 reciprocal scheme for non local part
 use partial core corrections
 calculate Harris-corrections to forces 
   (improved forces if not selfconsistent)
 use gradient corrections 
 use of overlap-Matrix (Vanderbilt PP)
 Gauss-broadening in eV      SIGMA  =   0.20


--------------------------------------------------------------------------------------------------------


  energy-cutoff  :      400.00
  volume of cell :     1092.32
      direct lattice vectors                 reciprocal lattice vectors
    10.100000000  0.000000000  0.000000000     0.099009901  0.000000000  0.000000000
     0.000000000 10.300000000  0.000000000     0.000000000  0.097087379  0.000000000
     0.000000000  0.000000000 10.500000000     0.000000000  0.000000000  0.095238095

  length of vectors
    10.100000000 10.300000000 10.500000000     0.099009901  0.097087379  0.095238095


 
 k-points in units of 2pi/SCALE and weight: Gamma-point only                        
   0.00000000  0.00000000  0.00000000       1.000
 
 k-points in reciprocal lattice and weights: Gamma-point only                        
   0.00000000  0.00000000  0.00000000       1.000
 
 position of ions in fractional coordinates (direct lattice) 
   0.00000000  0.00000000  0.00000000
   0.00000000  0.00000000  0.11428571
 
 position of ions in cartesian coordinates  (Angst):
   0.00000000  0.00000000  0.00000000
   0.00000000  0.00000000  1.20000000
 


--------------------------------------------------------------------------------------------------------


 k-point  1 :   0.0000 0.0000 0.0000  plane waves:   19819

 maximum and minimum number of plane-waves per node :     19819    19819

 maximum number of plane-waves:     19819
 maximum index in each direction: 
   IXMAX=   16   IYMAX=   16   IZMAX=   17
   IXMIN=  -16   IYMIN=  -16   IZMIN=  -17

 WARNING: aliasing errors must be expected set NGX to  66 to avoid them
 WARNING: aliasing errors must be expected set NGY to  66 to avoid them
 WARNING: aliasing errors must be expected set NGZ to  70 to avoid them
 aliasing errors are usually negligible using standard VASP settings
 and one can safely disregard these warnings

 serial   3D FFT for wavefunctions
 parallel 3D FFT for charge:
    minimum data exchange during FFTs selected (reduces bandwidth)


 total amount of memory used by VASP on root node   175530. kBytes
========================================================================

   base      :      30000. kBytes
   nonl-proj :       3171. kBytes
   fftplans  :      37440. kBytes
   grid      :      98560. kBytes
   one-center:         12. kBytes
   wavefun   :       6347. kBytes
 
 Broyden mixing: mesh for mixing (old mesh)
   NGX = 33   NGY = 33   NGZ = 35
  (NGX  =100   NGY  =100   NGZ  =108)
  gives a total of  38115 points

 initial charge density was supplied:
 charge density of overlapping atoms calculated
 number of electron      11.0000000 magnetization       2.0000000
 keeping initial charge density in first step


--------------------------------------------------------------------------------------------------------


 Maximum index for augmentation-charges         1533 (set IRDMAX)


--------------------------------------------------------------------------------------------------------


 First call to EWALD:  gamma=   0.172
 Maximum number of real-space cells 3x 3x 3
 Maximum number of reciprocal cells 3x 3x 3

 FEWALD executed in parallel
    FEWALD:  cpu time    0.00: real time    0.00


----------------------------------------- Iteration    1(   1)  ---------------------------------------


    POTLOK:  cpu time    1.70: real time    1.70
    SETDIJ:  cpu time    0.02: real time    0.02
     EDDAV:  cpu time    0.64: real time    0.64
       DOS:  cpu time    0.00: real time    0.00
    --------------------------------------------
      LOOP:  cpu time    2.36: real time    2.36

 eigenvalue-minimisations  :    56
 total energy-change (2. order) : 0.5767430E+02  (-0.2238442E+03)
 number of electron      11.0000000 magnetization       2.0000000
 augmentation part       11.0000000 magnetization       2.0000000

 Free energy of the ion-electron system (eV)
  ---------------------------------------------------
  alpha Z        PSCENC =         0.45022818
  Ewald energy   TEWEN  =       121.18601930
  -1/2 Hartree   DENC   =      -694.37904165
  -exchange  EXHF       =         0.00000000
  -V(xc)+E(xc)   XCENC  =        46.35056559
  PAW double counting   =       551.20228741     -554.18101748
  entropy T*S    EENTRO =        -0.12486197
  eigenvalues    EBANDS =      -109.56807710
  atomic energy  EATOM  =       696.73819845
  ---------------------------------------------------
  free energy    TOTEN  =        57.67430073 eV

  energy without entropy =       57.79916270  energy(sigma->0) =       57.73673172


--------------------------------------------------------------------------------------------------------




----------------------------------------- Iteration    1(   2)  ---------------------------------------


     EDDAV:  cpu time    0.65: real time    0.65
       DOS:  cpu time    0.00: real time    0.00
    --------------------------------------------
      LOOP:  cpu time    0.65: real time    0.65

 eigenvalue-minimisations  :    60
 total energy-change (2. order) :-0.5699595E+02  (-0.5473652E+02)
 number of electron      11.0000000 magnetization       2.0000000
 augmentation part       11.0000000 magnetization       2.0000000

 Free energy of the ion-electron system (eV)
  ---------------------------------------------------
  alpha Z        PSCENC =         0.45022818
  Ewald energy   TEWEN  =       121.18601930
  -1/2 Hartree   DENC   =      -694.37904165
  -exchange  EXHF       =         0.00000000
  -V(xc)+E(xc)   XCENC  =        46.35056559
  PAW double counting   =       551.20228741     -554.18101748
  entropy T*S    EENTRO =        -0.10242860
  eigenvalues    EBANDS =      -166.58645740
  atomic energy  EATOM  =       696.73819845
  ---------------------------------------------------
  free energy    TOTEN  =         0.67835381 eV

  energy without entropy =        0.78078241  energy(sigma->0) =        0.72956811


--------------------------------------------------------------------------------------------------------




----------------------------------------- Iteration    1(   3)  ---------------------------------------


     EDDAV:  cpu time    0.80: real time    0.80
       DOS:  cpu time    0.00: real time    0.00
    --------------------------------------------
      LOOP:  cpu time    0.80: real time    0.81

 eigenvalue-minimisations  :    76
 total energy-change (2. order) :-0.1226269E+02  (-0.1184458E+02)
 number of electron      11.0000000 magnetization       2.0000000
 augmentation part       11.0000000 magnetization       2.0000000

 Free energy of the ion-electron system (eV)
  ---------------------------------------------------
  alpha Z        PSCENC =         0.45022818
  Ewald energy   TEWEN  =       121.18601930
  -1/2 Hartree   DENC   =      -694.37904165
  -exchange  EXHF       =         0.00000000
  -V(xc)+E(xc)   XCENC  =        46.35056559
  PAW double counting   =       551.20228741     -554.18101748
  entropy T*S    EENTRO =        -0.00254871
  eigenvalues    EBANDS =      -178.94902324
  atomic energy  EATOM  =       696.73819845
  ---------------------------------------------------
  free energy    TOTEN  =       -11.58433214 eV

  energy without entropy =      -11.58178343  energy(sigma->0) =      -11.58305779


--------------------------------------------------------------------------------------------------------




----------------------------------------- Iteration    1(   4)  ---------------------------------------


     EDDAV:  cpu time    0.62: real time    0.61
       DOS:  cpu time    0.00: real time    0.00
    --------------------------------------------
      LOOP:  cpu time    0.62: real time    0.61

 eigenvalue-minimisations  :    56
 total energy-change (2. order) :-0.6807820E+00  (-0.5768081E+00)
 number of electron      11.0000000 magnetization       2.0000000
 augmentation part       11.0000000 magnetization       2.0000000

 Free energy of the ion-electron system (eV)
  ---------------------------------------------------
  alpha Z        PSCENC =         0.45022818
  Ewald energy   TEWEN  =       121.18601930
  -1/2 Hartree   DENC   =      -694.37904165
  -exchange  EXHF       =         0.00000000
  -V(xc)+E(xc)   XCENC  =        46.35056559
  PAW double counting   =       551.20228741     -554.18101748
  entropy T*S    EENTRO =        -0.11270929
  eigenvalues    EBANDS =      -179.51964470
  atomic energy  EATOM  =       696.73819845
  ---------------------------------------------------
  free energy    TOTEN  =       -12.26511419 eV

  energy without entropy =      -12.15240490  energy(sigma->0) =      -12.20875954


--------------------------------------------------------------------------------------------------------




----------------------------------------- Iteration    1(   5)  ---------------------------------------


     EDDAV:  cpu time    0.61: real time    0.61
       DOS:  cpu time    0.00: real time    0.00
    CHARGE:  cpu time    0.11: real time    0.11
    MIXING:  cpu time    0.03: real time    0.03
    --------------------------------------------
      LOOP:  cpu time    0.75: real time    0.75

 eigenvalue-minimisations  :    56
 total energy-change (2. order) :-0.9632797E-02  (-0.9535358E-02)
 number of electron      11.0000012 magnetization       1.5781330
 augmentation part        0.7721720 magnetization       0.7639507

 Broyden mixing:
  rms(total) = 0.71567E+00    rms(broyden)= 0.71431E+00
  rms(prec ) = 0.75379E+00
  weight for this iteration     100.00

 Free energy of the ion-electron system (eV)
  ---------------------------------------------------
  alpha Z        PSCENC =         0.45022818
  Ewald energy   TEWEN  =       121.18601930
  -1/2 Hartree   DENC   =      -694.37904165
  -exchange  EXHF       =         0.00000000
  -V(xc)+E(xc)   XCENC  =        46.35056559
  PAW double counting   =       551.20228741     -554.18101748
  entropy T*S    EENTRO =        -0.11283555
  eigenvalues    EBANDS =      -179.52915123
  atomic energy  EATOM  =       696.73819845
  ---------------------------------------------------
  free energy    TOTEN  =       -12.27474698 eV

  energy without entropy =      -12.16191143  energy(sigma->0) =      -12.21832921


--------------------------------------------------------------------------------------------------------




----------------------------------------- Iteration    1(   6)  ---------------------------------------


    POTLOK:  cpu time    1.68: real time    1.68
    SETDIJ:  cpu time    0.02: real time    0.02
    EDDIAG:  cpu time    0.10: real time    0.10
  RMM-DIIS:  cpu time    0.48: real time    0.48
    ORTHCH:  cpu time    0.01: real time    0.01
       DOS:  cpu time    0.00: real time    0.00
    CHARGE:  cpu time    0.11: real time    0.11
    MIXING:  cpu time    0.03: real time    0.03
    --------------------------------------------
      LOOP:  cpu time    2.42: real time    2.42

 eigenvalue-minimisations  :    46
 total energy-change (2. order) : 0.1717520E+01  (-0.1515837E+00)
 number of electron      11.0000011 magnetization       1.3276721
 augmentation part        0.7499172 magnetization       0.4946641

 Broyden mixing:
  rms(total) = 0.32411E+00    rms(broyden)= 0.32392E+00
  rms(prec ) = 0.34782E+00
  weight for this iteration     100.00

 eigenvalues of (default mixing * dielectric matrix)
  average eigenvalue GAMMA=   0.8734
  0.8734

 Free energy of the ion-electron system (eV)
  ---------------------------------------------------
  alpha Z        PSCENC =         0.45022818
  Ewald energy   TEWEN  =       121.18601930
  -1/2 Hartree   DENC   =      -700.81523351
  -exchange  EXHF       =         0.00000000
  -V(xc)+E(xc)   XCENC  =        48.09584257
  PAW double counting   =       670.72171347     -673.77277143
  entropy T*S    EENTRO =        -0.11281748
  eigenvalues    EBANDS =      -173.04840671
  atomic energy  EATOM  =       696.73819845
  ---------------------------------------------------
  free energy    TOTEN  =       -10.55722715 eV

  energy without entropy =      -10.44440967  energy(sigma->0) =      -10.50081841


--------------------------------------------------------------------------------------------------------




----------------------------------------- Iteration    1(   7)  ---------------------------------------


    POTLOK:  cpu time    1.68: real time    1.68
    SETDIJ:  cpu time    0.01: real time    0.02
    EDDIAG:  cpu time    0.10: real time    0.10
  RMM-DIIS:  cpu time    0.50: real time    0.49
    ORTHCH:  cpu time    0.01: real time    0.01
       DOS:  cpu time    0.00: real time    0.00
    CHARGE:  cpu time    0.10: real time    0.11
    MIXING:  cpu time    0.03: real time    0.03
    --------------------------------------------
      LOOP:  cpu time    2.44: real time    2.44

 eigenvalue-minimisations  :    48
 total energy-change (2. order) :-0.1016681E+01  (-0.4638005E-01)
 number of electron      11.0000011 magnetization       1.0836051
 augmentation part        0.7430752 magnetization       0.2523329

 Broyden mixing:
  rms(total) = 0.17304E+00    rms(broyden)= 0.17301E+00
  rms(prec ) = 0.18151E+00
  weight for this iteration     100.00

 eigenvalues of (default mixing * dielectric matrix)
  average eigenvalue GAMMA=   1.1730
  0.7763  1.5697

 Free energy of the ion-electron system (eV)
  ---------------------------------------------------
  alpha Z        PSCENC =         0.45022818
  Ewald energy   TEWEN  =       121.18601930
  -1/2 Hartree   DENC   =      -703.87103751
  -exchange  EXHF       =         0.00000000
  -V(xc)+E(xc)   XCENC  =        47.48635610
  PAW double counting   =       752.67624661     -755.75065869
  entropy T*S    EENTRO =        -0.11276188
  eigenvalues    EBANDS =      -170.37649852
  atomic energy  EATOM  =       696.73819845
  ---------------------------------------------------
  free energy    TOTEN  =       -11.57390796 eV

  energy without entropy =      -11.46114608  energy(sigma->0) =      -11.51752702


--------------------------------------------------------------------------------------------------------




----------------------------------------- Iteration    1(   8)  ---------------------------------------


    POTLOK:  cpu time    1.68: real time    1.68
    SETDIJ:  cpu time    0.02: real time    0.02
    EDDIAG:  cpu time    0.10: real time    0.10
  RMM-DIIS:  cpu time    0.49: real time    0.49
    ORTHCH:  cpu time    0.01: real time    0.01
       DOS:  cpu time    0.00: real time    0.00
    CHARGE:  cpu time    0.11: real time    0.11
    MIXING:  cpu time    0.03: real time    0.03
    --------------------------------------------
      LOOP:  cpu time    2.44: real time    2.44

 eigenvalue-minimisations  :    48
 total energy-change (2. order) :-0.5599660E+00  (-0.2186213E-01)
 number of electron      11.0000010 magnetization       1.0257518
 augmentation part        0.7357935 magnetization       0.1971903

 Broyden mixing:
  rms(total) = 0.59607E-01    rms(broyden)= 0.59513E-01
  rms(prec ) = 0.62884E-01
  weight for this iteration     100.00

 eigenvalues of (default mixing * dielectric matrix)
  average eigenvalue GAMMA=   1.2644
  2.1238  0.9653  0.7041

 Free energy of the ion-electron system (eV)
  ---------------------------------------------------
  alpha Z        PSCENC =         0.45022818
  Ewald energy   TEWEN  =       121.18601930
  -1/2 Hartree   DENC   =      -705.81166556
  -exchange  EXHF       =         0.00000000
  -V(xc)+E(xc)   XCENC  =        47.12557597
  PAW double counting   =       840.07679897     -843.13880018
  entropy T*S    EENTRO =        -0.11253072
  eigenvalues    EBANDS =      -168.64769835
  atomic energy  EATOM  =       696.73819845
  ---------------------------------------------------
  free energy    TOTEN  =       -12.13387395 eV

  energy without entropy =      -12.02134323  energy(sigma->0) =      -12.07760859


--------------------------------------------------------------------------------------------------------




----------------------------------------- Iteration    1(   9)  ---------------------------------------


    POTLOK:  cpu time    1.68: real time    1.68
    SETDIJ:  cpu time    0.02: real time    0.02
    EDDIAG:  cpu time    0.10: real time    0.10
  RMM-DIIS:  cpu time    0.50: real time    0.51
    ORTHCH:  cpu time    0.01: real time    0.01
       DOS:  cpu time    0.00: real time    0.00
    CHARGE:  cpu time    0.11: real time    0.11
    MIXING:  cpu time    0.04: real time    0.04
    --------------------------------------------
      LOOP:  cpu time    2.46: real time    2.46

 eigenvalue-minimisations  :    49
 total energy-change (2. order) :-0.1471268E+00  (-0.1556109E-02)
 number of electron      11.0000010 magnetization       1.0060958
 augmentation part        0.7349481 magnetization       0.1779602

 Broyden mixing:
  rms(total) = 0.28724E-01    rms(broyden)= 0.28551E-01
  rms(prec ) = 0.31448E-01
  weight for this iteration     100.00

 eigenvalues of (default mixing * dielectric matrix)
  average eigenvalue GAMMA=   1.2560
  2.2532  1.2492  0.8447  0.6767

 Free energy of the ion-electron system (eV)
  ---------------------------------------------------
  alpha Z        PSCENC =         0.45022818
  Ewald energy   TEWEN  =       121.18601930
  -1/2 Hartree   DENC   =      -705.44435214
  -exchange  EXHF       =         0.00000000
  -V(xc)+E(xc)   XCENC  =        46.95971720
  PAW double counting   =       862.71924783     -865.77372887
  entropy T*S    EENTRO =        -0.11216649
  eigenvalues    EBANDS =      -169.00416420
  atomic energy  EATOM  =       696.73819845
  ---------------------------------------------------
  free energy    TOTEN  =       -12.28100074 eV

  energy without entropy =      -12.16883425  energy(sigma->0) =      -12.22491750


--------------------------------------------------------------------------------------------------------




----------------------------------------- Iteration    1(  10)  ---------------------------------------


    POTLOK:  cpu time    1.68: real time    1.68
    SETDIJ:  cpu time    0.01: real time    0.02
    EDDIAG:  cpu time    0.10: real time    0.10
  RMM-DIIS:  cpu time    0.50: real time    0.49
    ORTHCH:  cpu time    0.00: real time    0.01
       DOS:  cpu time    0.00: real time    0.00
    CHARGE:  cpu time    0.11: real time    0.11
    MIXING:  cpu time    0.04: real time    0.04
    --------------------------------------------
      LOOP:  cpu time    2.45: real time    2.45

 eigenvalue-minimisations  :    48
 total energy-change (2. order) :-0.3394982E-01  (-0.3284001E-03)
 number of electron      11.0000009 magnetization       1.0022301
 augmentation part        0.7359080 magnetization       0.1747587

 Broyden mixing:
  rms(total) = 0.17497E-01    rms(broyden)= 0.17180E-01
  rms(prec ) = 0.19212E-01
  weight for this iteration     100.00

 eigenvalues of (default mixing * dielectric matrix)
  average eigenvalue GAMMA=   1.2410
  2.2953  1.5750  0.9602  0.7271  0.6475

 Free energy of the ion-electron system (eV)
  ---------------------------------------------------
  alpha Z        PSCENC =         0.45022818
  Ewald energy   TEWEN  =       121.18601930
  -1/2 Hartree   DENC   =      -704.99286208
  -exchange  EXHF       =         0.00000000
  -V(xc)+E(xc)   XCENC  =        46.89600238
  PAW double counting   =       870.90935677     -873.94796511
  entropy T*S    EENTRO =        -0.11163557
  eigenvalues    EBANDS =      -169.44229288
  atomic energy  EATOM  =       696.73819845
  ---------------------------------------------------
  free energy    TOTEN  =       -12.31495056 eV

  energy without entropy =      -12.20331499  energy(sigma->0) =      -12.25913277


--------------------------------------------------------------------------------------------------------




----------------------------------------- Iteration    1(  11)  ---------------------------------------


    POTLOK:  cpu time    1.68: real time    1.68
    SETDIJ:  cpu time    0.01: real time    0.02
    EDDIAG:  cpu time    0.10: real time    0.10
  RMM-DIIS:  cpu time    0.45: real time    0.45
    ORTHCH:  cpu time    0.01: real time    0.01
       DOS:  cpu time    0.00: real time    0.00
    CHARGE:  cpu time    0.11: real time    0.11
    MIXING:  cpu time    0.04: real time    0.04
    --------------------------------------------
      LOOP:  cpu time    2.41: real time    2.41

 eigenvalue-minimisations  :    43
 total energy-change (2. order) :-0.3692521E-02  (-0.4475476E-04)
 number of electron      11.0000009 magnetization       0.9999405
 augmentation part        0.7358685 magnetization       0.1724621

 Broyden mixing:
  rms(total) = 0.11671E-01    rms(broyden)= 0.11580E-01
  rms(prec ) = 0.13289E-01
  weight for this iteration     100.00

 eigenvalues of (default mixing * dielectric matrix)
  average eigenvalue GAMMA=   1.3230
  2.2585  1.7138  1.7138  0.9133  0.7087  0.6299

 Free energy of the ion-electron system (eV)
  ---------------------------------------------------
  alpha Z        PSCENC =         0.45022818
  Ewald energy   TEWEN  =       121.18601930
  -1/2 Hartree   DENC   =      -704.98593719
  -exchange  EXHF       =         0.00000000
  -V(xc)+E(xc)   XCENC  =        46.89108949
  PAW double counting   =       872.51398362     -875.55154542
  entropy T*S    EENTRO =        -0.11145662
  eigenvalues    EBANDS =      -169.44922289
  atomic energy  EATOM  =       696.73819845
  ---------------------------------------------------
  free energy    TOTEN  =       -12.31864308 eV

  energy without entropy =      -12.20718646  energy(sigma->0) =      -12.26291477


--------------------------------------------------------------------------------------------------------




----------------------------------------- Iteration    1(  12)  ---------------------------------------


    POTLOK:  cpu time    1.67: real time    1.67
    SETDIJ:  cpu time    0.01: real time    0.02
    EDDIAG:  cpu time    0.10: real time    0.10
  RMM-DIIS:  cpu time    0.39: real time    0.39
    ORTHCH:  cpu time    0.01: real time    0.01
       DOS:  cpu time    0.00: real time    0.00
    --------------------------------------------
      LOOP:  cpu time    2.19: real time    2.19

 eigenvalue-minimisations  :    37
 total energy-change (2. order) :-0.4258561E-04  (-0.4188171E-04)
 number of electron      11.0000009 magnetization       0.9999405
 augmentation part        0.7358685 magnetization       0.1724621

 Free energy of the ion-electron system (eV)
  ---------------------------------------------------
  alpha Z        PSCENC =         0.45022818
  Ewald energy   TEWEN  =       121.18601930
  -1/2 Hartree   DENC   =      -705.08512870
  -exchange  EXHF       =         0.00000000
  -V(xc)+E(xc)   XCENC  =        46.89448136
  PAW double counting   =       873.34973793     -876.38547180
  entropy T*S    EENTRO =        -0.11203605
  eigenvalues    EBANDS =      -169.35471432
  atomic energy  EATOM  =       696.73819845
  ---------------------------------------------------
  free energy    TOTEN  =       -12.31868566 eV

  energy without entropy =      -12.20664961  energy(sigma->0) =      -12.26266764


--------------------------------------------------------------------------------------------------------




 average (electrostatic) potential at core
  the test charge radii are     0.7089  0.7215
  (the norm of the test charge is              1.0000)
       1 -76.5117       2 -83.8487
 
 
 
 E-fermi :  -4.7819     XC(G=0):  -0.6126     alpha+bet : -0.1481


 spin component 1

 k-point   1 :       0.0000    0.0000    0.0000
  band No.  band energies     occupation 
      1     -30.6268      1.00000
      2     -17.0424      1.00000
      3     -12.3919      1.00000
      4     -12.3870      1.00000
      5     -11.5751      1.00000
      6      -4.7988      0.54753
      7      -4.7650      0.45247
      8      -0.3715      0.00000
      9       0.9083      0.00000
     10       0.9622      0.00000

 spin component 2

 k-point   1 :       0.0000    0.0000    0.0000
  band No.  band energies     occupation 
      1     -30.1440      1.00000
      2     -16.2194      1.00000
      3     -11.6427      1.00000
      4     -11.5080      1.00000
      5     -11.0338      1.00000
      6      -3.6332      0.00000
      7      -3.4683      0.00000
      8      -0.2700      0.00000
      9       0.9966      0.00000
     10       1.1026      0.00000


--------------------------------------------------------------------------------------------------------


 soft charge-density along one line, spin component           1
         0         1         2         3         4         5         6         7         8         9
 total charge-density along one line
 
 soft charge-density along one line, spin component           2
         0         1         2         3         4         5         6         7         8         9
 total charge-density along one line
 
 pseudopotential strength for first ion, spin component:           1
 14.393  17.292  -0.000  -0.007   0.000  -0.000  -0.028   0.000
 17.292  20.778  -0.000  -0.009   0.000  -0.000  -0.035   0.000
 -0.000  -0.000  -7.736  -0.000  -0.000 -10.810  -0.000  -0.000
 -0.007  -0.009  -0.000  -7.703   0.000  -0.000 -10.757   0.000
  0.000   0.000  -0.000   0.000  -7.730  -0.000   0.000 -10.799
 -0.000  -0.000 -10.810  -0.000  -0.000 -14.470  -0.000  -0.000
 -0.028  -0.035  -0.000 -10.757   0.000  -0.000 -14.384   0.000
  0.000   0.000  -0.000   0.000 -10.799  -0.000   0.000 -14.451
 pseudopotential strength for first ion, spin component:           2
 14.100  16.935  -0.000  -0.011   0.000  -0.000  -0.033   0.000
 16.935  20.341  -0.000  -0.014   0.000  -0.000  -0.041   0.000
 -0.000  -0.000  -7.507  -0.000  -0.000 -10.446  -0.000  -0.000
 -0.011  -0.014  -0.000  -7.656   0.000  -0.000 -10.686   0.000
  0.000   0.000  -0.000   0.000  -7.535  -0.000   0.000 -10.491
 -0.000  -0.000 -10.446  -0.000  -0.000 -13.894  -0.000  -0.000
 -0.033  -0.041  -0.000 -10.686   0.000  -0.000 -14.274   0.000
  0.000   0.000  -0.000   0.000 -10.491  -0.000   0.000 -13.965
 total augmentation occupancy for first ion, spin component:           1
  6.568  -3.232   0.000   2.402   0.000   0.000  -0.885   0.000
 -3.232   2.149   0.000  -2.101   0.000   0.000   0.671   0.000
  0.000   0.000   1.382   0.000   0.000  -0.129   0.000   0.000
  2.402  -2.101   0.000   2.831   0.000   0.000  -0.688   0.000
  0.000   0.000   0.000   0.000   1.337   0.000   0.000  -0.140
  0.000   0.000  -0.129   0.000   0.000   0.039   0.000   0.000
 -0.885   0.671   0.000  -0.688   0.000   0.000   0.220   0.000
  0.000   0.000   0.000   0.000  -0.140   0.000   0.000   0.037
 total augmentation occupancy for first ion, spin component:           2
 -0.272   0.168   0.000  -0.024   0.000   0.000   0.016   0.000
  0.168  -0.075   0.000   0.018   0.000   0.000  -0.009   0.000
  0.000   0.000   0.248   0.000   0.000   0.064   0.000   0.000
 -0.024   0.018   0.000  -0.006   0.000   0.000   0.003   0.000
  0.000   0.000   0.000   0.000   0.197   0.000   0.000   0.051
  0.000   0.000   0.064   0.000   0.000   0.006   0.000   0.000
  0.016  -0.009   0.000   0.003   0.000   0.000  -0.001   0.000
  0.000   0.000   0.000   0.000   0.051   0.000   0.000   0.004


------------------------ aborting loop because EDIFF is reached ----------------------------------------


    CHARGE:  cpu time    0.11: real time    0.11
    FORLOC:  cpu time    0.06: real time    0.05
    FORNL :  cpu time    0.10: real time    0.11
    STRESS:  cpu time    0.36: real time    0.36
    FORCOR:  cpu time    1.73: real time    1.73
    FORHAR:  cpu time    0.18: real time    0.18
    MIXING:  cpu time    0.04: real time    0.05

  FORCE on cell =-STRESS in cart. coord.  units (eV):
  Direction    XX          YY          ZZ          XY          YZ          ZX
  --------------------------------------------------------------------------------------
  Alpha Z     0.45023     0.45023     0.45023
  Ewald     -75.92560   -80.61399   277.72562     0.00000    -0.00000    -0.00000
  Hartree   187.47310   184.14459   333.47517    -0.00000    -0.00000    -0.00000
  E(xc)     -50.31609   -50.29871   -49.08723    -0.00000    -0.00000    -0.00000
  Local    -270.55804  -264.74575  -739.29665     0.00000    -0.00000     0.00000
  n-local   -28.85065   -29.67347   -37.39916    -0.00001    -0.00001    -0.00002
  augment     6.92143     7.14518     6.35742     0.00000     0.00000     0.00000
  Kinetic   229.51650   232.44696   203.61205     0.00006     0.00003     0.00009
  Fock        0.00000     0.00000     0.00000     0.00000     0.00000     0.00000
  -------------------------------------------------------------------------------------
  Total      -1.28912    -1.14496    -4.16255     0.00000     0.00000     0.00000
  in kB      -1.89084    -1.67939    -6.10551     0.00000     0.00000     0.00000
  external pressure =       -3.23 kB  Pullay stress =        0.00 kB


 VOLUME and BASIS-vectors are now :
 -----------------------------------------------------------------------------
  energy-cutoff  :      400.00
  volume of cell :     1092.32
      direct lattice vectors                 reciprocal lattice vectors
    10.100000000  0.000000000  0.000000000     0.099009901  0.000000000  0.000000000
     0.000000000 10.300000000  0.000000000     0.000000000  0.097087379  0.000000000
     0.000000000  0.000000000 10.500000000     0.000000000  0.000000000  0.095238095

  length of vectors
    10.100000000 10.300000000 10.500000000     0.099009901  0.097087379  0.095238095


 FORCES acting on ions
    electron-ion (+dipol)            ewald-force                    non-local-force                 convergence-correction
 -----------------------------------------------------------------------------------------------
   0.530E-14 0.839E-14 0.258E+03   0.565E-16 0.848E-17 -.298E+03   0.000E+00 0.000E+00 0.421E+02   0.191E-13 0.200E-13 0.541E-01
   0.509E-14 0.107E-13 -.244E+03   0.155E-16 -.503E-17 0.298E+03   0.000E+00 0.000E+00 -.569E+02   0.188E-14 0.131E-13 0.583E-03
 -----------------------------------------------------------------------------------------------
   0.104E-13 0.191E-13 0.147E+02   0.720E-16 0.346E-17 0.000E+00   0.000E+00 0.000E+00 -.148E+02   0.210E-13 0.330E-13 0.547E-01
 
 
 POSITION                                       TOTAL-FORCE (eV/Angst)
 -----------------------------------------------------------------------------------
      0.00000      0.00000      0.00000         0.000000      0.000000      2.586165
      0.00000      0.00000      1.20000         0.000000      0.000000     -2.586165
 -----------------------------------------------------------------------------------
    total drift:                                0.000000      0.000000     -0.000852


--------------------------------------------------------------------------------------------------------



  FREE ENERGIE OF THE ION-ELECTRON SYSTEM (eV)
  ---------------------------------------------------
  free  energy   TOTEN  =       -12.31868566 eV

  energy  without entropy=      -12.20664961  energy(sigma->0) =      -12.26266764
 


--------------------------------------------------------------------------------------------------------


    POTLOK:  cpu time    1.67: real time    1.68


--------------------------------------------------------------------------------------------------------


     LOOP+:  cpu time   26.26: real time   26.28
    4ORBIT:  cpu time    0.00: real time    0.00

 total amount of memory used by VASP on root node   175530. kBytes
========================================================================

   base      :      30000. kBytes
   nonl-proj :       3171. kBytes
   fftplans  :      37440. kBytes
   grid      :      98560. kBytes
   one-center:         12. kBytes
   wavefun   :       6347. kBytes
 
  
  
 General timing and accounting informations for this job:
 ========================================================
  
                  Total CPU time used (sec):       27.800
                            User time (sec):       27.620
                          System time (sec):        0.180
                         Elapsed time (sec):       27.816
  
                   Maximum memory used (kb):      318064.
                   Average memory used (kb):           0.
  
                          Minor page faults:        38464
                          Major page faults:            0
                 Voluntary context switches:            0
