 vasp.5.3.3 18Dez12 (build Sep  7 2015 22:32:56) complex                        
  
 executed on             LinuxIFC date 2002.02.18  23:56:45
 running on    1 total cores
 distrk:  each k-point on    1 cores,    1 groups
 distr:  one band on NCORES_PER_BAND=   1 cores,    1 groups


--------------------------------------------------------------------------------------------------------


 INCAR:
 POTCAR:    PAW_PBE N 08Apr2002                   
 POTCAR:    PAW_PBE O 08Apr2002                   
 POTCAR:    PAW_PBE N 08Apr2002                   
   VRHFIN =N: s2p3                                                              
   LEXCH  = PE                                                                  
   EATOM  =   264.5486 eV,   19.4438 Ry                                         
                                                                                
   TITEL  = PAW_PBE N 08Apr2002                                                 
   LULTRA =        F    use ultrasoft PP ?                                      
   IUNSCR =        1    unscreen: 0-lin 1-nonlin 2-no                           
   RPACOR =    1.200    partial core radius                                     
   POMASS =   14.001; ZVAL   =    5.000    mass and valenz                      
   RCORE  =    1.500    outmost cutoff radius                                   
   RWIGS  =    1.400; RWIGS  =    0.741    wigner-seitz radius (au A)           
   ENMAX  =  400.000; ENMIN  =  300.000 eV                                      
   ICORE  =        2    local potential                                         
   LCOR   =        T    correct aug charges                                     
   LPAW   =        T    paw PP                                                  
   EAUG   =  627.112                                                            
   DEXC   =    0.000                                                            
   RMAX   =    1.529    core radius for proj-oper                               
   RAUG   =    1.300    factor for augmentation sphere                          
   RDEP   =    1.514    radius for radial grids                                 
   RDEPT  =    1.338    core radius for aug-charge                              
                                                                                
   Atomic configuration                                                         
    4 entries                                                                   
     n  l   j            E        occ.                                          
     1  0  0.50      -384.7179   2.0000                                         
     2  0  0.50       -18.5828   2.0000                                         
     2  1  0.50        -7.0898   3.0000                                         
     3  2  1.50        -6.8029   0.0000                                         
   Description                                                                  
     l       E           TYP  RCUT    TYP  RCUT                                 
     0    -18.5828119     23  1.200                                             
     0    -13.5018863     23  1.200                                             
     1     -7.0897853     23  1.500                                             
     1      9.5240782     23  1.500                                             
     2     -6.8029130      7  1.500                                             
  local pseudopotential read in
  partial core-charges read in
  partial kinetic energy density read in
  atomic valenz-charges read in
  non local Contribution for L=           0  read in
    real space projection operators read in
  non local Contribution for L=           0  read in
    real space projection operators read in
  non local Contribution for L=           1  read in
    real space projection operators read in
  non local Contribution for L=           1  read in
    real space projection operators read in
    PAW grid and wavefunctions read in
 
   number of l-projection  operators is LMAX  =           4
   number of lm-projection operators is LMMAX =           8
 
 POTCAR:    PAW_PBE O 08Apr2002                   
   VRHFIN =O: s2p4                                                              
   LEXCH  = PE                                                                  
   EATOM  =   432.3788 eV,   31.7789 Ry                                         
                                                                                
   TITEL  = PAW_PBE O 08Apr2002                                                 
   LULTRA =        F    use ultrasoft PP ?                                      
   IUNSCR =        1    unscreen: 0-lin 1-nonlin 2-no                           
   RPACOR =    1.200    partial core radius                                     
   POMASS =   16.000; ZVAL   =    6.000    mass and valenz                      
   RCORE  =    1.520    outmost cutoff radius                                   
   RWIGS  =    1.550; RWIGS  =    0.820    wigner-seitz radius (au A)           
   ENMAX  =  400.000; ENMIN  =  300.000 eV                                      
   ICORE  =        2    local potential                                         
   LCOR   =        T    correct aug charges                                     
   LPAW   =        T    paw PP                                                  
   EAUG   =  605.392                                                            
   DEXC   =    0.000                                                            
   RMAX   =    1.553    core radius for proj-oper                               
   RAUG   =    1.300    factor for augmentation sphere                          
   RDEP   =    1.550    radius for radial grids                                 
   RDEPT  =    1.329    core radius for aug-charge                              
                                                                                
   Atomic configuration                                                         
    4 entries                                                                   
     n  l   j            E        occ.                                          
     1  0  0.50      -514.6923   2.0000                                         
     2  0  0.50       -23.9615   2.0000                                         
     2  1  0.50        -9.0305   4.0000                                         
     3  2  1.50        -9.5241   0.0000                                         
   Description                                                                  
     l       E           TYP  RCUT    TYP  RCUT                                 
     0    -23.9615318     23  1.200                                             
     0     -9.5240782     23  1.200                                             
     1     -9.0304911     23  1.520                                             
     1      8.1634956     23  1.520                                             
     2     -9.5240782      7  1.500                                             
  local pseudopotential read in
  partial core-charges read in
  partial kinetic energy density read in
  kinetic energy density of atom read in
  atomic valenz-charges read in
  non local Contribution for L=           0  read in
    real space projection operators read in
  non local Contribution for L=           0  read in
    real space projection operators read in
  non local Contribution for L=           1  read in
    real space projection operators read in
  non local Contribution for L=           1  read in
    real space projection operators read in
    PAW grid and wavefunctions read in
 
   number of l-projection  operators is LMAX  =           4
   number of lm-projection operators is LMMAX =           8
 
  PAW_PBE N 08Apr2002                   :
 energy of atom  1       EATOM= -264.5486
 kinetic energy error for atom=    0.0736 (will be added to EATOM!!)
  PAW_PBE O 08Apr2002                   :
 energy of atom  2       EATOM= -432.3788
 kinetic energy error for atom=    0.1156 (will be added to EATOM!!)
 
 
 POSCAR: CO molecule in a box                    
  positions in cartesian coordinates
  No initial velocities read in
 exchange correlation table for  LEXCH =        8
   RHO(1)=    0.500       N(1)  =     2000
   RHO(2)=  100.500       N(2)  =     4000
 


--------------------------------------------------------------------------------------------------------


 ion  position               nearest neighbor table
   1  0.000  0.000  0.000-   2 1.10
   2  0.000  0.000  0.105-   1 1.10
 
  LATTYP: Found a simple orthorhombic cell.
 ALAT       =    10.1000000000
 B/A-ratio  =     1.0198019802
 C/A-ratio  =     1.0396039604
  
  Lattice vectors:
  
 A1 = (  10.1000000000,   0.0000000000,   0.0000000000)
 A2 = (   0.0000000000,  10.3000000000,   0.0000000000)
 A3 = (   0.0000000000,   0.0000000000,  10.5000000000)


Analysis of symmetry for initial positions (statically):
=====================================================================
 Subroutine PRICEL returns:
 Original cell was already a primitive cell.
 

 Routine SETGRP: Setting up the symmetry group for a 
 simple orthorhombic supercell.


 Subroutine GETGRP returns: Found  4 space group operations
 (whereof  4 operations were pure point group operations)
 out of a pool of  8 trial point group operations.


The static configuration has the point symmetry C_2v.


Analysis of symmetry for dynamics (positions and initial velocities):
=====================================================================
 Subroutine PRICEL returns:
 Original cell was already a primitive cell.
 

 Routine SETGRP: Setting up the symmetry group for a 
 simple orthorhombic supercell.


 Subroutine GETGRP returns: Found  4 space group operations
 (whereof  4 operations were pure point group operations)
 out of a pool of  8 trial point group operations.


The dynamic configuration has the point symmetry C_2v.


Analysis of constrained symmetry for selective dynamics:
=====================================================================
 Subroutine PRICEL returns:
 Original cell was already a primitive cell.
 

 Routine SETGRP: Setting up the symmetry group for a 
 simple orthorhombic supercell.


 Subroutine GETGRP returns: Found  4 space group operations
 (whereof  4 operations were pure point group operations)
 out of a pool of  8 trial point group operations.


The constrained configuration has the point symmetry C_2v.


Analysis of magnetic symmetry:
=====================================================================

 Subroutine MAGSYM returns: Found  4 space group operations
 (whereof  4 operations were pure point group operations)
 out of a pool of  4 trial space group operations
 (whereof  4 operations were pure point group operations)
 and found also     1 'primitive' translations


The magnetic configuration has the point symmetry C_2v.


 irot  :   1
 --------------------------------------------------------------------
 isymop:   1   0   0
           0   1   0
           0   0   1

 gtrans:     0.0000000     0.0000000     0.0000000

 ptrans:     0.0000000     0.0000000     0.0000000
 rotmap:
 (   1->   1)  (   2->   2) 


 irot  :   2
 --------------------------------------------------------------------
 isymop:  -1   0   0
           0  -1   0
           0   0   1

 gtrans:     0.0000000     0.0000000     0.0000000

 ptrans:     0.0000000     0.0000000     0.0000000
 rotmap:
 (   1->   1)  (   2->   2) 


 irot  :   3
 --------------------------------------------------------------------
 isymop:   1   0   0
           0  -1   0
           0   0   1

 gtrans:     0.0000000     0.0000000     0.0000000

 ptrans:     0.0000000     0.0000000     0.0000000
 rotmap:
 (   1->   1)  (   2->   2) 


 irot  :   4
 --------------------------------------------------------------------
 isymop:  -1   0   0
           0   1   0
           0   0   1

 gtrans:     0.0000000     0.0000000     0.0000000

 ptrans:     0.0000000     0.0000000     0.0000000
 rotmap:
 (   1->   1)  (   2->   2) 
 
 
 KPOINTS: Gamma-point only                        

Automatic generation of k-mesh.
Space group operators:
 irot       det(A)        alpha          n_x          n_y          n_z        tau_x        tau_y        tau_z
    1     1.000000     0.000000     1.000000     0.000000     0.000000     0.000000     0.000000     0.000000
    2     1.000000   180.000000     0.000000     0.000000     1.000000     0.000000     0.000000     0.000000
    3    -1.000000   180.000000     0.000000     1.000000     0.000000     0.000000     0.000000     0.000000
    4    -1.000000   180.000000     1.000000     0.000000     0.000000     0.000000     0.000000     0.000000
 
 Subroutine IBZKPT returns following result:
 ===========================================
 
 Found      1 irreducible k-points:
 
 Following reciprocal coordinates:
            Coordinates               Weight
  0.000000  0.000000  0.000000      1.000000
 
 Following cartesian coordinates:
            Coordinates               Weight
  0.000000  0.000000  0.000000      1.000000
 


--------------------------------------------------------------------------------------------------------




 Dimension of arrays:
   k-points           NKPTS =      1   k-points in BZ     NKDIM =      1   number of bands    NBANDS=     10
   number of dos      NEDOS =    301   number of ions     NIONS =      2
   non local maximal  LDIM  =      4   non local SUM 2l+1 LMDIM =      8
   total plane-waves  NPLWV = 135000
   max r-space proj   IRMAX =      1   max aug-charges    IRDMAX=   1803
   dimension x,y,z NGX =    50 NGY =   50 NGZ =   54
   dimension x,y,z NGXF=   100 NGYF=  100 NGZF=  108
   support grid    NGXF=   100 NGYF=  100 NGZF=  108
   ions per type =               1   1
 NGX,Y,Z   is equivalent  to a cutoff of   8.23,  8.07,  8.55 a.u.
 NGXF,Y,Z  is equivalent  to a cutoff of  16.46, 16.14, 17.10 a.u.


 I would recommend the setting:
   dimension x,y,z NGX =    49 NGY =   50 NGZ =   51
 SYSTEM =  Hello World                             
 POSCAR =  CO molecule in a box                    

 Startparameter for this run:
   NWRITE =      2    write-flag & timer
   PREC   = normal    normal or accurate (medium, high low for compatibility)
   ISTART =      0    job   : 0-new  1-cont  2-samecut
   ICHARG =      2    charge: 1-file 2-atom 10-const
   ISPIN  =      2    spin polarized calculation?
   LNONCOLLINEAR =      F non collinear calculations
   LSORBIT =      F    spin-orbit coupling
   INIWAV =      1    electr: 0-lowe 1-rand  2-diag
   LASPH  =      F    aspherical Exc in radial PAW
   METAGGA=      F    non-selfconsistent MetaGGA calc.

 Electronic Relaxation 1
   ENCUT  =  400.0 eV  29.40 Ry    5.42 a.u.  16.47 16.80 17.12*2*pi/ulx,y,z
   ENINI  =  400.0     initial cutoff
   ENAUG  =  627.1 eV  augmentation charge cutoff
   NELM   =     60;   NELMIN=  2; NELMDL=  0     # of ELM steps 
   EDIFF  = 0.1E-03   stopping-criterion for ELM
   LREAL  =      F    real-space projection
   NLSPLINE    = F    spline interpolate recip. space projectors
   LCOMPAT=      F    compatible to vasp.4.4
   GGA_COMPAT  = T    GGA compatible to vasp.4.4-vasp.4.6
   LMAXPAW     = -100 max onsite density
   LMAXMIX     =    2 max onsite mixed and CHGCAR
   VOSKOWN=      0    Vosko Wilk Nusair interpolation
   ROPT   =    0.00000   0.00000
 Ionic relaxation
   EDIFFG = -.1E-01   stopping-criterion for IOM
   NSW    =      0    number of steps for IOM
   NBLOCK =      1;   KBLOCK =      1    inner block; outer block 
   IBRION =     -1    ionic relax: 0-MD 1-quasi-New 2-CG
   NFREE  =      0    steps in history (QN), initial steepest desc. (CG)
   ISIF   =      2    stress and relaxation
   IWAVPR =     10    prediction:  0-non 1-charg 2-wave 3-comb
   ISYM   =      2    0-nonsym 1-usesym 2-fastsym
   LCORR  =      T    Harris-Foulkes like correction to forces

   POTIM  = 0.5000    time-step for ionic-motion
   TEIN   =    0.0    initial temperature
   TEBEG  =    0.0;   TEEND  =   0.0 temperature during run
   SMASS  =  -3.00    Nose mass-parameter (am)
   estimated Nose-frequenzy (Omega)   =  0.10E-29 period in steps =****** mass=  -0.233E-26a.u.
   SCALEE = 1.0000    scale energy and forces
   NPACO  =    256;   APACO  = 16.0  distance and # of slots for P.C.
   PSTRESS=    0.0 pullay stress

  Mass of Ions in am
   POMASS =  14.00 16.00
  Ionic Valenz
   ZVAL   =   5.00  6.00
  Atomic Wigner-Seitz radii
   RWIGS  =  -1.00 -1.00
  virtual crystal weights 
   VCA    =   1.00  1.00
   NELECT =      11.0000    total number of electrons
   NUPDOWN=      -1.0000    fix difference up-down

 DOS related values:
   EMIN   =  10.00;   EMAX   =-10.00  energy-range for DOS
   EFERMI =   0.00
   ISMEAR =     0;   SIGMA  =   0.20  broadening in eV -4-tet -1-fermi 0-gaus

 Electronic relaxation 2 (details)
   IALGO  =     68    algorithm
   LDIAG  =      T    sub-space diagonalisation (order eigenvalues)
   LSUBROT=      T    optimize rotation matrix (better conditioning)
   TURBO    =      0    0=normal 1=particle mesh
   IRESTART =      0    0=no restart 2=restart with 2 vectors
   NREBOOT  =      0    no. of reboots
   NMIN     =      0    reboot dimension
   EREF     =   0.00    reference energy to select bands
   IMIX   =      4    mixing-type and parameters
     AMIX     =   0.40;   BMIX     =  1.00
     AMIX_MAG =   1.60;   BMIX_MAG =  1.00
     AMIN     =   0.10
     WC   =   100.;   INIMIX=   1;  MIXPRE=   1;  MAXMIX= -45

 Intra band minimization:
   WEIMIN = 0.0000     energy-eigenvalue tresh-hold
   EBREAK =  0.25E-05  absolut break condition
   DEPER  =   0.30     relativ break condition  

   TIME   =   0.40     timestep for ELM

  volume/ion in A,a.u.               =     546.16      3685.65
  Fermi-wavevector in a.u.,A,eV,Ry     =   0.353527  0.668070  1.700478  0.124982
  Thomas-Fermi vector in A             =   1.267843
 
 Write flags
   LWAVE  =      F    write WAVECAR
   LCHARG =      F    write CHGCAR
   LVTOT  =      F    write LOCPOT, total local potential
   LVHAR  =      F    write LOCPOT, Hartree potential only
   LELF   =      F    write electronic localiz. function (ELF)
   LORBIT =      0    0 simple, 1 ext, 2 COOP (PROOUT)


 Dipole corrections
   LMONO  =      F    monopole corrections only (constant potential shift)
   LDIPOL =      F    correct potential (dipole corrections)
   IDIPOL =      0    1-x, 2-y, 3-z, 4-all directions 
   EPSILON=  1.0000000 bulk dielectric constant

 Exchange correlation treatment:
   GGA     =    --    GGA type
   LEXCH   =     8    internal setting for exchange type
   VOSKOWN=      0    Vosko Wilk Nusair interpolation
   LHFCALC =     F    Hartree Fock is set to
   LHFONE  =     F    Hartree Fock one center treatment
   AEXX    =    0.0000 exact exchange contribution

 Linear response parameters
   LEPSILON=     F    determine dielectric tensor
   LRPA    =     F    only Hartree local field effects (RPA)
   LNABLA  =     F    use nabla operator in PAW spheres
   LVEL    =     F    velocity operator in full k-point grid
   LINTERFAST=   F  fast interpolation
   KINTER  =     0    interpolate to denser k-point grid
   CSHIFT  =0.1000    complex shift for real part using Kramers Kronig
   OMEGAMAX=  -1.0    maximum frequency
   DEG_THRESHOLD= 0.2000000E-02 threshold for treating states as degnerate
   RTIME   =    0.100 relaxation time in fs

 Orbital magnetization related:
   ORBITALMAG=     F  switch on orbital magnetization
   LCHIMAG   =     F  perturbation theory with respect to B field
   DQ        =  0.001000  dq finite difference perturbation B field



--------------------------------------------------------------------------------------------------------


 Static calculation
 charge density and potential will be updated during run
 spin polarized calculation
 RMM-DIIS sequential band-by-band and
  variant of blocked Davidson during initial phase
 perform sub-space diagonalisation
    before iterative eigenvector-optimisation
 modified Broyden-mixing scheme, WC =      100.0
 initial mixing is a Kerker type mixing with AMIX =  0.4000 and BMIX =      1.0000
 Hartree-type preconditioning will be used
 using additional bands            4
 reciprocal scheme for non local part
 use partial core corrections
 calculate Harris-corrections to forces 
   (improved forces if not selfconsistent)
 use gradient corrections 
 use of overlap-Matrix (Vanderbilt PP)
 Gauss-broadening in eV      SIGMA  =   0.20


--------------------------------------------------------------------------------------------------------


  energy-cutoff  :      400.00
  volume of cell :     1092.32
      direct lattice vectors                 reciprocal lattice vectors
    10.100000000  0.000000000  0.000000000     0.099009901  0.000000000  0.000000000
     0.000000000 10.300000000  0.000000000     0.000000000  0.097087379  0.000000000
     0.000000000  0.000000000 10.500000000     0.000000000  0.000000000  0.095238095

  length of vectors
    10.100000000 10.300000000 10.500000000     0.099009901  0.097087379  0.095238095


 
 k-points in units of 2pi/SCALE and weight: Gamma-point only                        
   0.00000000  0.00000000  0.00000000       1.000
 
 k-points in reciprocal lattice and weights: Gamma-point only                        
   0.00000000  0.00000000  0.00000000       1.000
 
 position of ions in fractional coordinates (direct lattice) 
   0.00000000  0.00000000  0.00000000
   0.00000000  0.00000000  0.10476190
 
 position of ions in cartesian coordinates  (Angst):
   0.00000000  0.00000000  0.00000000
   0.00000000  0.00000000  1.10000000
 


--------------------------------------------------------------------------------------------------------


 k-point  1 :   0.0000 0.0000 0.0000  plane waves:   19819

 maximum and minimum number of plane-waves per node :     19819    19819

 maximum number of plane-waves:     19819
 maximum index in each direction: 
   IXMAX=   16   IYMAX=   16   IZMAX=   17
   IXMIN=  -16   IYMIN=  -16   IZMIN=  -17

 WARNING: aliasing errors must be expected set NGX to  66 to avoid them
 WARNING: aliasing errors must be expected set NGY to  66 to avoid them
 WARNING: aliasing errors must be expected set NGZ to  70 to avoid them
 aliasing errors are usually negligible using standard VASP settings
 and one can safely disregard these warnings

 serial   3D FFT for wavefunctions
 parallel 3D FFT for charge:
    minimum data exchange during FFTs selected (reduces bandwidth)


 total amount of memory used by VASP on root node   175530. kBytes
========================================================================

   base      :      30000. kBytes
   nonl-proj :       3171. kBytes
   fftplans  :      37440. kBytes
   grid      :      98560. kBytes
   one-center:         12. kBytes
   wavefun   :       6347. kBytes
 
 Broyden mixing: mesh for mixing (old mesh)
   NGX = 33   NGY = 33   NGZ = 35
  (NGX  =100   NGY  =100   NGZ  =108)
  gives a total of  38115 points

 initial charge density was supplied:
 charge density of overlapping atoms calculated
 number of electron      11.0000000 magnetization       2.0000000
 keeping initial charge density in first step


--------------------------------------------------------------------------------------------------------


 Maximum index for augmentation-charges         1533 (set IRDMAX)


--------------------------------------------------------------------------------------------------------


 First call to EWALD:  gamma=   0.172
 Maximum number of real-space cells 3x 3x 3
 Maximum number of reciprocal cells 3x 3x 3

 FEWALD executed in parallel
    FEWALD:  cpu time    0.00: real time    0.00


----------------------------------------- Iteration    1(   1)  ---------------------------------------


    POTLOK:  cpu time    1.80: real time    1.80
    SETDIJ:  cpu time    0.02: real time    0.02
     EDDAV:  cpu time    0.67: real time    0.67
       DOS:  cpu time    0.00: real time    0.00
    --------------------------------------------
      LOOP:  cpu time    2.49: real time    2.49

 eigenvalue-minimisations  :    56
 total energy-change (2. order) : 0.5925647E+02  (-0.2325094E+03)
 number of electron      11.0000000 magnetization       2.0000000
 augmentation part       11.0000000 magnetization       2.0000000

 Free energy of the ion-electron system (eV)
  ---------------------------------------------------
  alpha Z        PSCENC =         0.45022818
  Ewald energy   TEWEN  =       153.73207064
  -1/2 Hartree   DENC   =      -716.07915648
  -exchange  EXHF       =         0.00000000
  -V(xc)+E(xc)   XCENC  =        46.91451916
  PAW double counting   =       551.20228741     -554.18101748
  entropy T*S    EENTRO =        -0.09937848
  eigenvalues    EBANDS =      -119.42128445
  atomic energy  EATOM  =       696.73819845
  ---------------------------------------------------
  free energy    TOTEN  =        59.25646695 eV

  energy without entropy =       59.35584543  energy(sigma->0) =       59.30615619


--------------------------------------------------------------------------------------------------------




----------------------------------------- Iteration    1(   2)  ---------------------------------------


     EDDAV:  cpu time    0.76: real time    0.76
       DOS:  cpu time    0.00: real time    0.00
    --------------------------------------------
      LOOP:  cpu time    0.76: real time    0.76

 eigenvalue-minimisations  :    60
 total energy-change (2. order) :-0.6033254E+02  (-0.6023852E+02)
 number of electron      11.0000000 magnetization       2.0000000
 augmentation part       11.0000000 magnetization       2.0000000

 Free energy of the ion-electron system (eV)
  ---------------------------------------------------
  alpha Z        PSCENC =         0.45022818
  Ewald energy   TEWEN  =       153.73207064
  -1/2 Hartree   DENC   =      -716.07915648
  -exchange  EXHF       =         0.00000000
  -V(xc)+E(xc)   XCENC  =        46.91451916
  PAW double counting   =       551.20228741     -554.18101748
  entropy T*S    EENTRO =        -0.10266374
  eigenvalues    EBANDS =      -179.75054132
  atomic energy  EATOM  =       696.73819845
  ---------------------------------------------------
  free energy    TOTEN  =        -1.07607518 eV

  energy without entropy =       -0.97341144  energy(sigma->0) =       -1.02474331


--------------------------------------------------------------------------------------------------------




----------------------------------------- Iteration    1(   3)  ---------------------------------------


     EDDAV:  cpu time    0.82: real time    0.82
       DOS:  cpu time    0.00: real time    0.00
    --------------------------------------------
      LOOP:  cpu time    0.82: real time    0.82

 eigenvalue-minimisations  :    64
 total energy-change (2. order) :-0.1018525E+02  (-0.8841616E+01)
 number of electron      11.0000000 magnetization       2.0000000
 augmentation part       11.0000000 magnetization       2.0000000

 Free energy of the ion-electron system (eV)
  ---------------------------------------------------
  alpha Z        PSCENC =         0.45022818
  Ewald energy   TEWEN  =       153.73207064
  -1/2 Hartree   DENC   =      -716.07915648
  -exchange  EXHF       =         0.00000000
  -V(xc)+E(xc)   XCENC  =        46.91451916
  PAW double counting   =       551.20228741     -554.18101748
  entropy T*S    EENTRO =        -0.00000043
  eigenvalues    EBANDS =      -190.03845799
  atomic energy  EATOM  =       696.73819845
  ---------------------------------------------------
  free energy    TOTEN  =       -11.26132853 eV

  energy without entropy =      -11.26132811  energy(sigma->0) =      -11.26132832


--------------------------------------------------------------------------------------------------------




----------------------------------------- Iteration    1(   4)  ---------------------------------------


     EDDAV:  cpu time    0.77: real time    0.77
       DOS:  cpu time    0.00: real time    0.00
    --------------------------------------------
      LOOP:  cpu time    0.77: real time    0.77

 eigenvalue-minimisations  :    64
 total energy-change (2. order) :-0.8980038E+00  (-0.8083322E+00)
 number of electron      11.0000000 magnetization       2.0000000
 augmentation part       11.0000000 magnetization       2.0000000

 Free energy of the ion-electron system (eV)
  ---------------------------------------------------
  alpha Z        PSCENC =         0.45022818
  Ewald energy   TEWEN  =       153.73207064
  -1/2 Hartree   DENC   =      -716.07915648
  -exchange  EXHF       =         0.00000000
  -V(xc)+E(xc)   XCENC  =        46.91451916
  PAW double counting   =       551.20228741     -554.18101748
  entropy T*S    EENTRO =        -0.11104788
  eigenvalues    EBANDS =      -190.82541432
  atomic energy  EATOM  =       696.73819845
  ---------------------------------------------------
  free energy    TOTEN  =       -12.15933232 eV

  energy without entropy =      -12.04828444  energy(sigma->0) =      -12.10380838


--------------------------------------------------------------------------------------------------------




----------------------------------------- Iteration    1(   5)  ---------------------------------------


     EDDAV:  cpu time    0.68: real time    0.68
       DOS:  cpu time    0.00: real time    0.00
    CHARGE:  cpu time    0.12: real time    0.12
    MIXING:  cpu time    0.03: real time    0.03
    --------------------------------------------
      LOOP:  cpu time    0.83: real time    0.83

 eigenvalue-minimisations  :    56
 total energy-change (2. order) :-0.3032941E-01  (-0.2869622E-01)
 number of electron      11.0000020 magnetization       1.5781330
 augmentation part        0.8501744 magnetization       0.7668674

 Broyden mixing:
  rms(total) = 0.81532E+00    rms(broyden)= 0.81400E+00
  rms(prec ) = 0.86531E+00
  weight for this iteration     100.00

 Free energy of the ion-electron system (eV)
  ---------------------------------------------------
  alpha Z        PSCENC =         0.45022818
  Ewald energy   TEWEN  =       153.73207064
  -1/2 Hartree   DENC   =      -716.07915648
  -exchange  EXHF       =         0.00000000
  -V(xc)+E(xc)   XCENC  =        46.91451916
  PAW double counting   =       551.20228741     -554.18101748
  entropy T*S    EENTRO =        -0.11283347
  eigenvalues    EBANDS =      -190.85395814
  atomic energy  EATOM  =       696.73819845
  ---------------------------------------------------
  free energy    TOTEN  =       -12.18966173 eV

  energy without entropy =      -12.07682826  energy(sigma->0) =      -12.13324499


--------------------------------------------------------------------------------------------------------




----------------------------------------- Iteration    1(   6)  ---------------------------------------


    POTLOK:  cpu time    1.79: real time    1.79
    SETDIJ:  cpu time    0.02: real time    0.02
    EDDIAG:  cpu time    0.11: real time    0.11
  RMM-DIIS:  cpu time    0.52: real time    0.51
    ORTHCH:  cpu time    0.01: real time    0.01
       DOS:  cpu time    0.00: real time    0.00
    CHARGE:  cpu time    0.12: real time    0.13
    MIXING:  cpu time    0.04: real time    0.03
    --------------------------------------------
      LOOP:  cpu time    2.60: real time    2.60

 eigenvalue-minimisations  :    46
 total energy-change (2. order) : 0.1957869E+01  (-0.1586757E+00)
 number of electron      11.0000019 magnetization       1.3047282
 augmentation part        0.8279748 magnetization       0.4729934

 Broyden mixing:
  rms(total) = 0.39040E+00    rms(broyden)= 0.39025E+00
  rms(prec ) = 0.41772E+00
  weight for this iteration     100.00

 eigenvalues of (default mixing * dielectric matrix)
  average eigenvalue GAMMA=   0.8923
  0.8923

 Free energy of the ion-electron system (eV)
  ---------------------------------------------------
  alpha Z        PSCENC =         0.45022818
  Ewald energy   TEWEN  =       153.73207064
  -1/2 Hartree   DENC   =      -725.60237931
  -exchange  EXHF       =         0.00000000
  -V(xc)+E(xc)   XCENC  =        48.90541427
  PAW double counting   =       712.84142214     -715.98185105
  entropy T*S    EENTRO =        -0.11280570
  eigenvalues    EBANDS =      -181.20209004
  atomic energy  EATOM  =       696.73819845
  ---------------------------------------------------
  free energy    TOTEN  =       -10.23179242 eV

  energy without entropy =      -10.11898671  energy(sigma->0) =      -10.17538957


--------------------------------------------------------------------------------------------------------




----------------------------------------- Iteration    1(   7)  ---------------------------------------


    POTLOK:  cpu time    1.79: real time    1.80
    SETDIJ:  cpu time    0.02: real time    0.02
    EDDIAG:  cpu time    0.11: real time    0.11
  RMM-DIIS:  cpu time    0.56: real time    0.56
    ORTHCH:  cpu time    0.01: real time    0.01
       DOS:  cpu time    0.00: real time    0.00
    CHARGE:  cpu time    0.12: real time    0.12
    MIXING:  cpu time    0.04: real time    0.04
    --------------------------------------------
      LOOP:  cpu time    2.64: real time    2.64

 eigenvalue-minimisations  :    50
 total energy-change (2. order) :-0.1053244E+01  (-0.7063524E-01)
 number of electron      11.0000018 magnetization       1.0902482
 augmentation part        0.8100782 magnetization       0.2594464

 Broyden mixing:
  rms(total) = 0.20644E+00    rms(broyden)= 0.20641E+00
  rms(prec ) = 0.21416E+00
  weight for this iteration     100.00

 eigenvalues of (default mixing * dielectric matrix)
  average eigenvalue GAMMA=   1.2003
  0.7713  1.6293

 Free energy of the ion-electron system (eV)
  ---------------------------------------------------
  alpha Z        PSCENC =         0.45022818
  Ewald energy   TEWEN  =       153.73207064
  -1/2 Hartree   DENC   =      -730.78080497
  -exchange  EXHF       =         0.00000000
  -V(xc)+E(xc)   XCENC  =        48.35106028
  PAW double counting   =       840.21263005     -843.44521885
  entropy T*S    EENTRO =        -0.11271096
  eigenvalues    EBANDS =      -176.43048901
  atomic energy  EATOM  =       696.73819845
  ---------------------------------------------------
  free energy    TOTEN  =       -11.28503619 eV

  energy without entropy =      -11.17232523  energy(sigma->0) =      -11.22868071


--------------------------------------------------------------------------------------------------------




----------------------------------------- Iteration    1(   8)  ---------------------------------------


    POTLOK:  cpu time    1.80: real time    1.80
    SETDIJ:  cpu time    0.02: real time    0.02
    EDDIAG:  cpu time    0.11: real time    0.11
  RMM-DIIS:  cpu time    0.53: real time    0.53
    ORTHCH:  cpu time    0.00: real time    0.01
       DOS:  cpu time    0.00: real time    0.00
    CHARGE:  cpu time    0.12: real time    0.12
    MIXING:  cpu time    0.04: real time    0.04
    --------------------------------------------
      LOOP:  cpu time    2.62: real time    2.63

 eigenvalue-minimisations  :    48
 total energy-change (2. order) :-0.5269874E+00  (-0.1878090E-01)
 number of electron      11.0000018 magnetization       1.0220976
 augmentation part        0.8052298 magnetization       0.1930434

 Broyden mixing:
  rms(total) = 0.77983E-01    rms(broyden)= 0.77909E-01
  rms(prec ) = 0.82636E-01
  weight for this iteration     100.00

 eigenvalues of (default mixing * dielectric matrix)
  average eigenvalue GAMMA=   1.2924
  2.1787  0.9851  0.7135

 Free energy of the ion-electron system (eV)
  ---------------------------------------------------
  alpha Z        PSCENC =         0.45022818
  Ewald energy   TEWEN  =       153.73207064
  -1/2 Hartree   DENC   =      -732.52131638
  -exchange  EXHF       =         0.00000000
  -V(xc)+E(xc)   XCENC  =        48.00162975
  PAW double counting   =       951.92937140     -955.17888470
  entropy T*S    EENTRO =        -0.11242207
  eigenvalues    EBANDS =      -174.85089886
  atomic energy  EATOM  =       696.73819845
  ---------------------------------------------------
  free energy    TOTEN  =       -11.81202358 eV

  energy without entropy =      -11.69960151  energy(sigma->0) =      -11.75581255


--------------------------------------------------------------------------------------------------------




----------------------------------------- Iteration    1(   9)  ---------------------------------------


    POTLOK:  cpu time    1.80: real time    1.81
    SETDIJ:  cpu time    0.02: real time    0.02
    EDDIAG:  cpu time    0.11: real time    0.11
  RMM-DIIS:  cpu time    0.52: real time    0.51
    ORTHCH:  cpu time    0.01: real time    0.01
       DOS:  cpu time    0.00: real time    0.00
    CHARGE:  cpu time    0.12: real time    0.13
    MIXING:  cpu time    0.04: real time    0.04
    --------------------------------------------
      LOOP:  cpu time    2.62: real time    2.62

 eigenvalue-minimisations  :    48
 total energy-change (2. order) :-0.1968393E+00  (-0.1614264E-02)
 number of electron      11.0000017 magnetization       1.0018357
 augmentation part        0.8045779 magnetization       0.1728779

 Broyden mixing:
  rms(total) = 0.31859E-01    rms(broyden)= 0.31674E-01
  rms(prec ) = 0.35166E-01
  weight for this iteration     100.00

 eigenvalues of (default mixing * dielectric matrix)
  average eigenvalue GAMMA=   1.3150
  2.3306  1.3647  0.8784  0.6863

 Free energy of the ion-electron system (eV)
  ---------------------------------------------------
  alpha Z        PSCENC =         0.45022818
  Ewald energy   TEWEN  =       153.73207064
  -1/2 Hartree   DENC   =      -731.91264592
  -exchange  EXHF       =         0.00000000
  -V(xc)+E(xc)   XCENC  =        47.77448108
  PAW double counting   =       992.16424916     -995.41413801
  entropy T*S    EENTRO =        -0.11195053
  eigenvalues    EBANDS =      -175.42935593
  atomic energy  EATOM  =       696.73819845
  ---------------------------------------------------
  free energy    TOTEN  =       -12.00886288 eV

  energy without entropy =      -11.89691235  energy(sigma->0) =      -11.95288762


--------------------------------------------------------------------------------------------------------




----------------------------------------- Iteration    1(  10)  ---------------------------------------


    POTLOK:  cpu time    1.82: real time    1.82
    SETDIJ:  cpu time    0.02: real time    0.02
    EDDIAG:  cpu time    0.11: real time    0.11
  RMM-DIIS:  cpu time    0.52: real time    0.51
    ORTHCH:  cpu time    0.00: real time    0.01
       DOS:  cpu time    0.00: real time    0.00
    CHARGE:  cpu time    0.11: real time    0.11
    MIXING:  cpu time    0.05: real time    0.05
    --------------------------------------------
      LOOP:  cpu time    2.63: real time    2.63

 eigenvalue-minimisations  :    48
 total energy-change (2. order) :-0.2868082E-01  (-0.4203972E-03)
 number of electron      11.0000017 magnetization       1.0004059
 augmentation part        0.8054623 magnetization       0.1723038

 Broyden mixing:
  rms(total) = 0.15962E-01    rms(broyden)= 0.15680E-01
  rms(prec ) = 0.18294E-01
  weight for this iteration     100.00

 eigenvalues of (default mixing * dielectric matrix)
  average eigenvalue GAMMA=   1.2596
  2.3571  1.5736  0.9469  0.7530  0.6675

 Free energy of the ion-electron system (eV)
  ---------------------------------------------------
  alpha Z        PSCENC =         0.45022818
  Ewald energy   TEWEN  =       153.73207064
  -1/2 Hartree   DENC   =      -731.39427887
  -exchange  EXHF       =         0.00000000
  -V(xc)+E(xc)   XCENC  =        47.71658839
  PAW double counting   =      1005.55512715    -1008.79173021
  entropy T*S    EENTRO =        -0.11145104
  eigenvalues    EBANDS =      -175.93229639
  atomic energy  EATOM  =       696.73819845
  ---------------------------------------------------
  free energy    TOTEN  =       -12.03754370 eV

  energy without entropy =      -11.92609266  energy(sigma->0) =      -11.98181818


--------------------------------------------------------------------------------------------------------




----------------------------------------- Iteration    1(  11)  ---------------------------------------


    POTLOK:  cpu time    1.83: real time    1.83
    SETDIJ:  cpu time    0.02: real time    0.02
    EDDIAG:  cpu time    0.11: real time    0.11
  RMM-DIIS:  cpu time    0.51: real time    0.51
    ORTHCH:  cpu time    0.01: real time    0.01
       DOS:  cpu time    0.00: real time    0.00
    CHARGE:  cpu time    0.11: real time    0.11
    MIXING:  cpu time    0.04: real time    0.04
    --------------------------------------------
      LOOP:  cpu time    2.63: real time    2.63

 eigenvalue-minimisations  :    47
 total energy-change (2. order) :-0.4802690E-02  (-0.4827051E-04)
 number of electron      11.0000017 magnetization       0.9999663
 augmentation part        0.8055888 magnetization       0.1717798

 Broyden mixing:
  rms(total) = 0.85333E-02    rms(broyden)= 0.85219E-02
  rms(prec ) = 0.10725E-01
  weight for this iteration     100.00

 eigenvalues of (default mixing * dielectric matrix)
  average eigenvalue GAMMA=   1.2651
  2.3466  1.5026  1.5026  0.8968  0.7042  0.6375

 Free energy of the ion-electron system (eV)
  ---------------------------------------------------
  alpha Z        PSCENC =         0.45022818
  Ewald energy   TEWEN  =       153.73207064
  -1/2 Hartree   DENC   =      -731.38776386
  -exchange  EXHF       =         0.00000000
  -V(xc)+E(xc)   XCENC  =        47.71113730
  PAW double counting   =      1006.72465249    -1009.96194004
  entropy T*S    EENTRO =        -0.11150341
  eigenvalues    EBANDS =      -175.93742613
  atomic energy  EATOM  =       696.73819845
  ---------------------------------------------------
  free energy    TOTEN  =       -12.04234639 eV

  energy without entropy =      -11.93084298  energy(sigma->0) =      -11.98659468


--------------------------------------------------------------------------------------------------------




----------------------------------------- Iteration    1(  12)  ---------------------------------------


    POTLOK:  cpu time    1.82: real time    1.82
    SETDIJ:  cpu time    0.02: real time    0.02
    EDDIAG:  cpu time    0.13: real time    0.13
  RMM-DIIS:  cpu time    0.46: real time    0.46
    ORTHCH:  cpu time    0.01: real time    0.01
       DOS:  cpu time    0.00: real time    0.00
    CHARGE:  cpu time    0.11: real time    0.11
    MIXING:  cpu time    0.05: real time    0.05
    --------------------------------------------
      LOOP:  cpu time    2.59: real time    2.59

 eigenvalue-minimisations  :    42
 total energy-change (2. order) :-0.1478200E-02  (-0.2895388E-04)
 number of electron      11.0000018 magnetization       0.9999866
 augmentation part        0.8054889 magnetization       0.1717844

 Broyden mixing:
  rms(total) = 0.17938E-01    rms(broyden)= 0.17504E-01
  rms(prec ) = 0.18884E-01
  weight for this iteration     100.00

 eigenvalues of (default mixing * dielectric matrix)
  average eigenvalue GAMMA=   1.0742
  2.3586  1.4976  0.9620  0.7439  0.6527  0.6523  0.6523

 Free energy of the ion-electron system (eV)
  ---------------------------------------------------
  alpha Z        PSCENC =         0.45022818
  Ewald energy   TEWEN  =       153.73207064
  -1/2 Hartree   DENC   =      -731.45313438
  -exchange  EXHF       =         0.00000000
  -V(xc)+E(xc)   XCENC  =        47.71213733
  PAW double counting   =      1007.23346050    -1010.46936981
  entropy T*S    EENTRO =        -0.11232565
  eigenvalues    EBANDS =      -175.87508984
  atomic energy  EATOM  =       696.73819845
  ---------------------------------------------------
  free energy    TOTEN  =       -12.04382459 eV

  energy without entropy =      -11.93149894  energy(sigma->0) =      -11.98766176


--------------------------------------------------------------------------------------------------------




----------------------------------------- Iteration    1(  13)  ---------------------------------------


    POTLOK:  cpu time    1.78: real time    1.78
    SETDIJ:  cpu time    0.02: real time    0.02
    EDDIAG:  cpu time    0.13: real time    0.13
  RMM-DIIS:  cpu time    0.44: real time    0.43
    ORTHCH:  cpu time    0.00: real time    0.01
       DOS:  cpu time    0.00: real time    0.00
    --------------------------------------------
      LOOP:  cpu time    2.38: real time    2.38

 eigenvalue-minimisations  :    36
 total energy-change (2. order) :-0.3126991E-04  (-0.1140549E-04)
 number of electron      11.0000018 magnetization       0.9999866
 augmentation part        0.8054889 magnetization       0.1717844

 Free energy of the ion-electron system (eV)
  ---------------------------------------------------
  alpha Z        PSCENC =         0.45022818
  Ewald energy   TEWEN  =       153.73207064
  -1/2 Hartree   DENC   =      -731.43518617
  -exchange  EXHF       =         0.00000000
  -V(xc)+E(xc)   XCENC  =        47.71131545
  PAW double counting   =      1007.15507407    -1010.39121248
  entropy T*S    EENTRO =        -0.11249159
  eigenvalues    EBANDS =      -175.89185240
  atomic energy  EATOM  =       696.73819845
  ---------------------------------------------------
  free energy    TOTEN  =       -12.04385586 eV

  energy without entropy =      -11.93136427  energy(sigma->0) =      -11.98761006


--------------------------------------------------------------------------------------------------------




 average (electrostatic) potential at core
  the test charge radii are     0.7089  0.7215
  (the norm of the test charge is              1.0000)
       1 -76.4455       2 -84.3221
 
 
 
 E-fermi :  -3.8214     XC(G=0):  -0.7161     alpha+bet : -0.1481


 spin component 1

 k-point   1 :       0.0000    0.0000    0.0000
  band No.  band energies     occupation 
      1     -32.7215      1.00000
      2     -16.5366      1.00000
      3     -13.4303      1.00000
      4     -13.4267      1.00000
      5     -11.6589      1.00000
      6      -3.8325      0.53125
      7      -3.8103      0.46875
      8      -0.4638      0.00000
      9       0.8504      0.00000
     10       0.8867      0.00000

 spin component 2

 k-point   1 :       0.0000    0.0000    0.0000
  band No.  band energies     occupation 
      1     -32.2574      1.00000
      2     -15.7749      1.00000
      3     -12.6644      1.00000
      4     -12.5528      1.00000
      5     -11.0462      1.00000
      6      -2.6829      0.00000
      7      -2.5540      0.00000
      8       0.9968      0.00000
      9       1.0030      0.00000
     10       1.0776      0.00000


--------------------------------------------------------------------------------------------------------


 soft charge-density along one line, spin component           1
         0         1         2         3         4         5         6         7         8         9
 total charge-density along one line
 
 soft charge-density along one line, spin component           2
         0         1         2         3         4         5         6         7         8         9
 total charge-density along one line
 
 pseudopotential strength for first ion, spin component:           1
 14.390  17.288  -0.000  -0.017   0.000  -0.000  -0.049   0.000
 17.288  20.772  -0.000  -0.021   0.000  -0.000  -0.060   0.000
 -0.000  -0.000  -7.690  -0.000  -0.000 -10.736  -0.000  -0.000
 -0.017  -0.021  -0.000  -7.712  -0.000  -0.000 -10.771  -0.000
  0.000   0.000  -0.000  -0.000  -7.686  -0.000  -0.000 -10.729
 -0.000  -0.000 -10.736  -0.000  -0.000 -14.350  -0.000  -0.000
 -0.049  -0.060  -0.000 -10.771  -0.000  -0.000 -14.403  -0.000
  0.000   0.000  -0.000  -0.000 -10.729  -0.000  -0.000 -14.339
 pseudopotential strength for first ion, spin component:           2
 14.120  16.959  -0.000  -0.019   0.000  -0.000  -0.053   0.000
 16.959  20.370  -0.000  -0.024   0.000  -0.000  -0.065   0.000
 -0.000  -0.000  -7.474   0.000  -0.000 -10.394   0.000  -0.000
 -0.019  -0.024   0.000  -7.666   0.000   0.000 -10.702   0.000
  0.000   0.000  -0.000   0.000  -7.497  -0.000   0.000 -10.429
 -0.000  -0.000 -10.394   0.000  -0.000 -13.809   0.000  -0.000
 -0.053  -0.065   0.000 -10.702   0.000   0.000 -14.297   0.000
  0.000   0.000  -0.000   0.000 -10.429  -0.000   0.000 -13.864
 total augmentation occupancy for first ion, spin component:           1
  8.823  -4.761   0.000   3.047   0.000   0.000  -1.049   0.000
 -4.761   3.120   0.000  -2.594   0.000   0.000   0.807   0.000
  0.000   0.000   1.510   0.000   0.000  -0.177   0.000   0.000
  3.047  -2.594   0.000   2.953   0.000   0.000  -0.696   0.000
  0.000   0.000   0.000   0.000   1.488   0.000   0.000  -0.185
  0.000   0.000  -0.177   0.000   0.000   0.055   0.000   0.000
 -1.049   0.807   0.000  -0.696   0.000   0.000   0.257   0.000
  0.000   0.000   0.000   0.000  -0.185   0.000   0.000   0.052
 total augmentation occupancy for first ion, spin component:           2
 -0.317   0.206   0.000  -0.025   0.000   0.000   0.011   0.000
  0.206  -0.109   0.000   0.017   0.000   0.000  -0.005   0.000
  0.000   0.000   0.191   0.000   0.000   0.066   0.000   0.000
 -0.025   0.017   0.000   0.001   0.000   0.000  -0.001   0.000
  0.000   0.000   0.000   0.000   0.164   0.000   0.000   0.057
  0.000   0.000   0.066   0.000   0.000   0.010   0.000   0.000
  0.011  -0.005   0.000  -0.001   0.000   0.000   0.001   0.000
  0.000   0.000   0.000   0.000   0.057   0.000   0.000   0.008


------------------------ aborting loop because EDIFF is reached ----------------------------------------


    CHARGE:  cpu time    0.12: real time    0.11
    FORLOC:  cpu time    0.06: real time    0.06
    FORNL :  cpu time    0.11: real time    0.11
    STRESS:  cpu time    0.37: real time    0.37
    FORCOR:  cpu time    1.88: real time    1.88
    FORHAR:  cpu time    0.19: real time    0.19
    MIXING:  cpu time    0.05: real time    0.05

  FORCE on cell =-STRESS in cart. coord.  units (eV):
  Direction    XX          YY          ZZ          XY          YZ          ZX
  --------------------------------------------------------------------------------------
  Alpha Z     0.45023     0.45023     0.45023
  Ewald     -75.81892   -80.51742   310.06843     0.00000     0.00000    -0.00000
  Hartree   197.52019   193.75491   340.24517    -0.00000    -0.00000    -0.00000
  E(xc)     -51.15294   -51.13448   -49.86263     0.00000    -0.00000    -0.00000
  Local    -283.32047  -276.20483  -766.62361     0.00000     0.00000     0.00000
  n-local   -29.99429   -30.53115   -40.26257    -0.00001    -0.00002    -0.00003
  augment     7.33791     7.49241     6.14314     0.00000    -0.00000    -0.00000
  Kinetic   233.62131   235.57821   209.10217     0.00004     0.00005     0.00016
  Fock        0.00000     0.00000     0.00000     0.00000     0.00000     0.00000
  -------------------------------------------------------------------------------------
  Total      -1.35699    -1.11212     9.26032     0.00000     0.00000     0.00000
  in kB      -1.99040    -1.63123    13.58279     0.00000     0.00000     0.00000
  external pressure =        3.32 kB  Pullay stress =        0.00 kB


 VOLUME and BASIS-vectors are now :
 -----------------------------------------------------------------------------
  energy-cutoff  :      400.00
  volume of cell :     1092.32
      direct lattice vectors                 reciprocal lattice vectors
    10.100000000  0.000000000  0.000000000     0.099009901  0.000000000  0.000000000
     0.000000000 10.300000000  0.000000000     0.000000000  0.097087379  0.000000000
     0.000000000  0.000000000 10.500000000     0.000000000  0.000000000  0.095238095

  length of vectors
    10.100000000 10.300000000 10.500000000     0.099009901  0.097087379  0.095238095


 FORCES acting on ions
    electron-ion (+dipol)            ewald-force                    non-local-force                 convergence-correction
 -----------------------------------------------------------------------------------------------
   0.237E-14 0.358E-13 0.299E+03   0.960E-17 -.676E-16 -.355E+03   0.000E+00 0.000E+00 0.465E+02   0.193E-13 0.182E-13 0.407E-01
   0.750E-15 0.108E-13 -.280E+03   0.624E-16 0.710E-16 0.355E+03   0.000E+00 0.000E+00 -.655E+02   0.890E-14 0.736E-14 0.410E-01
 -----------------------------------------------------------------------------------------------
   0.312E-14 0.466E-13 0.190E+02   0.720E-16 0.346E-17 0.000E+00   0.000E+00 0.000E+00 -.191E+02   0.282E-13 0.256E-13 0.817E-01
 
 
 POSITION                                       TOTAL-FORCE (eV/Angst)
 -----------------------------------------------------------------------------------
      0.00000      0.00000      0.00000         0.000000      0.000000     -9.598309
      0.00000      0.00000      1.10000         0.000000      0.000000      9.598309
 -----------------------------------------------------------------------------------
    total drift:                                0.000000      0.000000     -0.008648


--------------------------------------------------------------------------------------------------------



  FREE ENERGIE OF THE ION-ELECTRON SYSTEM (eV)
  ---------------------------------------------------
  free  energy   TOTEN  =       -12.04385586 eV

  energy  without entropy=      -11.93136427  energy(sigma->0) =      -11.98761006
 


--------------------------------------------------------------------------------------------------------


    POTLOK:  cpu time    1.80: real time    1.80


--------------------------------------------------------------------------------------------------------


     LOOP+:  cpu time   30.98: real time   31.00
    4ORBIT:  cpu time    0.00: real time    0.00

 total amount of memory used by VASP on root node   175530. kBytes
========================================================================

   base      :      30000. kBytes
   nonl-proj :       3171. kBytes
   fftplans  :      37440. kBytes
   grid      :      98560. kBytes
   one-center:         12. kBytes
   wavefun   :       6347. kBytes
 
  
  
 General timing and accounting informations for this job:
 ========================================================
  
                  Total CPU time used (sec):       32.556
                            User time (sec):       32.316
                          System time (sec):        0.240
                         Elapsed time (sec):       32.582
  
                   Maximum memory used (kb):      318136.
                   Average memory used (kb):           0.
  
                          Minor page faults:        39725
                          Major page faults:            0
                 Voluntary context switches:            0
