 vasp.5.3.3 18Dez12 (build Sep  7 2015 22:32:56) complex                        
  
 executed on             LinuxIFC date 2002.02.18  06:03:47
 running on    1 total cores
 distrk:  each k-point on    1 cores,    1 groups
 distr:  one band on NCORES_PER_BAND=   1 cores,    1 groups


--------------------------------------------------------------------------------------------------------


 INCAR:
 POTCAR:    PAW_PBE N 08Apr2002                   
 POTCAR:    PAW_PBE O 08Apr2002                   
 POTCAR:    PAW_PBE N 08Apr2002                   
   VRHFIN =N: s2p3                                                              
   LEXCH  = PE                                                                  
   EATOM  =   264.5486 eV,   19.4438 Ry                                         
                                                                                
   TITEL  = PAW_PBE N 08Apr2002                                                 
   LULTRA =        F    use ultrasoft PP ?                                      
   IUNSCR =        1    unscreen: 0-lin 1-nonlin 2-no                           
   RPACOR =    1.200    partial core radius                                     
   POMASS =   14.001; ZVAL   =    5.000    mass and valenz                      
   RCORE  =    1.500    outmost cutoff radius                                   
   RWIGS  =    1.400; RWIGS  =    0.741    wigner-seitz radius (au A)           
   ENMAX  =  400.000; ENMIN  =  300.000 eV                                      
   ICORE  =        2    local potential                                         
   LCOR   =        T    correct aug charges                                     
   LPAW   =        T    paw PP                                                  
   EAUG   =  627.112                                                            
   DEXC   =    0.000                                                            
   RMAX   =    1.529    core radius for proj-oper                               
   RAUG   =    1.300    factor for augmentation sphere                          
   RDEP   =    1.514    radius for radial grids                                 
   RDEPT  =    1.338    core radius for aug-charge                              
                                                                                
   Atomic configuration                                                         
    4 entries                                                                   
     n  l   j            E        occ.                                          
     1  0  0.50      -384.7179   2.0000                                         
     2  0  0.50       -18.5828   2.0000                                         
     2  1  0.50        -7.0898   3.0000                                         
     3  2  1.50        -6.8029   0.0000                                         
   Description                                                                  
     l       E           TYP  RCUT    TYP  RCUT                                 
     0    -18.5828119     23  1.200                                             
     0    -13.5018863     23  1.200                                             
     1     -7.0897853     23  1.500                                             
     1      9.5240782     23  1.500                                             
     2     -6.8029130      7  1.500                                             
  local pseudopotential read in
  partial core-charges read in
  partial kinetic energy density read in
  atomic valenz-charges read in
  non local Contribution for L=           0  read in
    real space projection operators read in
  non local Contribution for L=           0  read in
    real space projection operators read in
  non local Contribution for L=           1  read in
    real space projection operators read in
  non local Contribution for L=           1  read in
    real space projection operators read in
    PAW grid and wavefunctions read in
 
   number of l-projection  operators is LMAX  =           4
   number of lm-projection operators is LMMAX =           8
 
 POTCAR:    PAW_PBE O 08Apr2002                   
   VRHFIN =O: s2p4                                                              
   LEXCH  = PE                                                                  
   EATOM  =   432.3788 eV,   31.7789 Ry                                         
                                                                                
   TITEL  = PAW_PBE O 08Apr2002                                                 
   LULTRA =        F    use ultrasoft PP ?                                      
   IUNSCR =        1    unscreen: 0-lin 1-nonlin 2-no                           
   RPACOR =    1.200    partial core radius                                     
   POMASS =   16.000; ZVAL   =    6.000    mass and valenz                      
   RCORE  =    1.520    outmost cutoff radius                                   
   RWIGS  =    1.550; RWIGS  =    0.820    wigner-seitz radius (au A)           
   ENMAX  =  400.000; ENMIN  =  300.000 eV                                      
   ICORE  =        2    local potential                                         
   LCOR   =        T    correct aug charges                                     
   LPAW   =        T    paw PP                                                  
   EAUG   =  605.392                                                            
   DEXC   =    0.000                                                            
   RMAX   =    1.553    core radius for proj-oper                               
   RAUG   =    1.300    factor for augmentation sphere                          
   RDEP   =    1.550    radius for radial grids                                 
   RDEPT  =    1.329    core radius for aug-charge                              
                                                                                
   Atomic configuration                                                         
    4 entries                                                                   
     n  l   j            E        occ.                                          
     1  0  0.50      -514.6923   2.0000                                         
     2  0  0.50       -23.9615   2.0000                                         
     2  1  0.50        -9.0305   4.0000                                         
     3  2  1.50        -9.5241   0.0000                                         
   Description                                                                  
     l       E           TYP  RCUT    TYP  RCUT                                 
     0    -23.9615318     23  1.200                                             
     0     -9.5240782     23  1.200                                             
     1     -9.0304911     23  1.520                                             
     1      8.1634956     23  1.520                                             
     2     -9.5240782      7  1.500                                             
  local pseudopotential read in
  partial core-charges read in
  partial kinetic energy density read in
  kinetic energy density of atom read in
  atomic valenz-charges read in
  non local Contribution for L=           0  read in
    real space projection operators read in
  non local Contribution for L=           0  read in
    real space projection operators read in
  non local Contribution for L=           1  read in
    real space projection operators read in
  non local Contribution for L=           1  read in
    real space projection operators read in
    PAW grid and wavefunctions read in
 
   number of l-projection  operators is LMAX  =           4
   number of lm-projection operators is LMMAX =           8
 
  PAW_PBE N 08Apr2002                   :
 energy of atom  1       EATOM= -264.5486
 kinetic energy error for atom=    0.0736 (will be added to EATOM!!)
  PAW_PBE O 08Apr2002                   :
 energy of atom  2       EATOM= -432.3788
 kinetic energy error for atom=    0.1156 (will be added to EATOM!!)
 
 
 POSCAR: CO molecule in a box                    
  positions in cartesian coordinates
  No initial velocities read in
 exchange correlation table for  LEXCH =        8
   RHO(1)=    0.500       N(1)  =     2000
   RHO(2)=  100.500       N(2)  =     4000
 


--------------------------------------------------------------------------------------------------------


 ion  position               nearest neighbor table
   1  0.000  0.000  0.000-
   2  0.000  0.000  0.286-
 
  LATTYP: Found a simple orthorhombic cell.
 ALAT       =    10.1000000000
 B/A-ratio  =     1.0198019802
 C/A-ratio  =     1.0396039604
  
  Lattice vectors:
  
 A1 = (  10.1000000000,   0.0000000000,   0.0000000000)
 A2 = (   0.0000000000,  10.3000000000,   0.0000000000)
 A3 = (   0.0000000000,   0.0000000000,  10.5000000000)


Analysis of symmetry for initial positions (statically):
=====================================================================
 Subroutine PRICEL returns:
 Original cell was already a primitive cell.
 

 Routine SETGRP: Setting up the symmetry group for a 
 simple orthorhombic supercell.


 Subroutine GETGRP returns: Found  4 space group operations
 (whereof  4 operations were pure point group operations)
 out of a pool of  8 trial point group operations.


The static configuration has the point symmetry C_2v.


Analysis of symmetry for dynamics (positions and initial velocities):
=====================================================================
 Subroutine PRICEL returns:
 Original cell was already a primitive cell.
 

 Routine SETGRP: Setting up the symmetry group for a 
 simple orthorhombic supercell.


 Subroutine GETGRP returns: Found  4 space group operations
 (whereof  4 operations were pure point group operations)
 out of a pool of  8 trial point group operations.


The dynamic configuration has the point symmetry C_2v.


Analysis of constrained symmetry for selective dynamics:
=====================================================================
 Subroutine PRICEL returns:
 Original cell was already a primitive cell.
 

 Routine SETGRP: Setting up the symmetry group for a 
 simple orthorhombic supercell.


 Subroutine GETGRP returns: Found  4 space group operations
 (whereof  4 operations were pure point group operations)
 out of a pool of  8 trial point group operations.


The constrained configuration has the point symmetry C_2v.


Analysis of magnetic symmetry:
=====================================================================

 Subroutine MAGSYM returns: Found  4 space group operations
 (whereof  4 operations were pure point group operations)
 out of a pool of  4 trial space group operations
 (whereof  4 operations were pure point group operations)
 and found also     1 'primitive' translations


The magnetic configuration has the point symmetry C_2v.


 irot  :   1
 --------------------------------------------------------------------
 isymop:   1   0   0
           0   1   0
           0   0   1

 gtrans:     0.0000000     0.0000000     0.0000000

 ptrans:     0.0000000     0.0000000     0.0000000
 rotmap:
 (   1->   1)  (   2->   2) 


 irot  :   2
 --------------------------------------------------------------------
 isymop:  -1   0   0
           0  -1   0
           0   0   1

 gtrans:     0.0000000     0.0000000     0.0000000

 ptrans:     0.0000000     0.0000000     0.0000000
 rotmap:
 (   1->   1)  (   2->   2) 


 irot  :   3
 --------------------------------------------------------------------
 isymop:   1   0   0
           0  -1   0
           0   0   1

 gtrans:     0.0000000     0.0000000     0.0000000

 ptrans:     0.0000000     0.0000000     0.0000000
 rotmap:
 (   1->   1)  (   2->   2) 


 irot  :   4
 --------------------------------------------------------------------
 isymop:  -1   0   0
           0   1   0
           0   0   1

 gtrans:     0.0000000     0.0000000     0.0000000

 ptrans:     0.0000000     0.0000000     0.0000000
 rotmap:
 (   1->   1)  (   2->   2) 
 
 
 KPOINTS: Gamma-point only                        

Automatic generation of k-mesh.
Space group operators:
 irot       det(A)        alpha          n_x          n_y          n_z        tau_x        tau_y        tau_z
    1     1.000000     0.000000     1.000000     0.000000     0.000000     0.000000     0.000000     0.000000
    2     1.000000   180.000000     0.000000     0.000000     1.000000     0.000000     0.000000     0.000000
    3    -1.000000   180.000000     0.000000     1.000000     0.000000     0.000000     0.000000     0.000000
    4    -1.000000   180.000000     1.000000     0.000000     0.000000     0.000000     0.000000     0.000000
 
 Subroutine IBZKPT returns following result:
 ===========================================
 
 Found      1 irreducible k-points:
 
 Following reciprocal coordinates:
            Coordinates               Weight
  0.000000  0.000000  0.000000      1.000000
 
 Following cartesian coordinates:
            Coordinates               Weight
  0.000000  0.000000  0.000000      1.000000
 


--------------------------------------------------------------------------------------------------------




 Dimension of arrays:
   k-points           NKPTS =      1   k-points in BZ     NKDIM =      1   number of bands    NBANDS=     10
   number of dos      NEDOS =    301   number of ions     NIONS =      2
   non local maximal  LDIM  =      4   non local SUM 2l+1 LMDIM =      8
   total plane-waves  NPLWV = 135000
   max r-space proj   IRMAX =      1   max aug-charges    IRDMAX=   1803
   dimension x,y,z NGX =    50 NGY =   50 NGZ =   54
   dimension x,y,z NGXF=   100 NGYF=  100 NGZF=  108
   support grid    NGXF=   100 NGYF=  100 NGZF=  108
   ions per type =               1   1
 NGX,Y,Z   is equivalent  to a cutoff of   8.23,  8.07,  8.55 a.u.
 NGXF,Y,Z  is equivalent  to a cutoff of  16.46, 16.14, 17.10 a.u.


 I would recommend the setting:
   dimension x,y,z NGX =    49 NGY =   50 NGZ =   51
 SYSTEM =  Hello World                             
 POSCAR =  CO molecule in a box                    

 Startparameter for this run:
   NWRITE =      2    write-flag & timer
   PREC   = normal    normal or accurate (medium, high low for compatibility)
   ISTART =      0    job   : 0-new  1-cont  2-samecut
   ICHARG =      2    charge: 1-file 2-atom 10-const
   ISPIN  =      2    spin polarized calculation?
   LNONCOLLINEAR =      F non collinear calculations
   LSORBIT =      F    spin-orbit coupling
   INIWAV =      1    electr: 0-lowe 1-rand  2-diag
   LASPH  =      F    aspherical Exc in radial PAW
   METAGGA=      F    non-selfconsistent MetaGGA calc.

 Electronic Relaxation 1
   ENCUT  =  400.0 eV  29.40 Ry    5.42 a.u.  16.47 16.80 17.12*2*pi/ulx,y,z
   ENINI  =  400.0     initial cutoff
   ENAUG  =  627.1 eV  augmentation charge cutoff
   NELM   =     60;   NELMIN=  2; NELMDL=  0     # of ELM steps 
   EDIFF  = 0.1E-03   stopping-criterion for ELM
   LREAL  =      F    real-space projection
   NLSPLINE    = F    spline interpolate recip. space projectors
   LCOMPAT=      F    compatible to vasp.4.4
   GGA_COMPAT  = T    GGA compatible to vasp.4.4-vasp.4.6
   LMAXPAW     = -100 max onsite density
   LMAXMIX     =    2 max onsite mixed and CHGCAR
   VOSKOWN=      0    Vosko Wilk Nusair interpolation
   ROPT   =    0.00000   0.00000
 Ionic relaxation
   EDIFFG = -.1E-01   stopping-criterion for IOM
   NSW    =      0    number of steps for IOM
   NBLOCK =      1;   KBLOCK =      1    inner block; outer block 
   IBRION =     -1    ionic relax: 0-MD 1-quasi-New 2-CG
   NFREE  =      0    steps in history (QN), initial steepest desc. (CG)
   ISIF   =      2    stress and relaxation
   IWAVPR =     10    prediction:  0-non 1-charg 2-wave 3-comb
   ISYM   =      2    0-nonsym 1-usesym 2-fastsym
   LCORR  =      T    Harris-Foulkes like correction to forces

   POTIM  = 0.5000    time-step for ionic-motion
   TEIN   =    0.0    initial temperature
   TEBEG  =    0.0;   TEEND  =   0.0 temperature during run
   SMASS  =  -3.00    Nose mass-parameter (am)
   estimated Nose-frequenzy (Omega)   =  0.10E-29 period in steps =****** mass=  -0.233E-26a.u.
   SCALEE = 1.0000    scale energy and forces
   NPACO  =    256;   APACO  = 16.0  distance and # of slots for P.C.
   PSTRESS=    0.0 pullay stress

  Mass of Ions in am
   POMASS =  14.00 16.00
  Ionic Valenz
   ZVAL   =   5.00  6.00
  Atomic Wigner-Seitz radii
   RWIGS  =  -1.00 -1.00
  virtual crystal weights 
   VCA    =   1.00  1.00
   NELECT =      11.0000    total number of electrons
   NUPDOWN=      -1.0000    fix difference up-down

 DOS related values:
   EMIN   =  10.00;   EMAX   =-10.00  energy-range for DOS
   EFERMI =   0.00
   ISMEAR =     0;   SIGMA  =   0.20  broadening in eV -4-tet -1-fermi 0-gaus

 Electronic relaxation 2 (details)
   IALGO  =     68    algorithm
   LDIAG  =      T    sub-space diagonalisation (order eigenvalues)
   LSUBROT=      T    optimize rotation matrix (better conditioning)
   TURBO    =      0    0=normal 1=particle mesh
   IRESTART =      0    0=no restart 2=restart with 2 vectors
   NREBOOT  =      0    no. of reboots
   NMIN     =      0    reboot dimension
   EREF     =   0.00    reference energy to select bands
   IMIX   =      4    mixing-type and parameters
     AMIX     =   0.40;   BMIX     =  1.00
     AMIX_MAG =   1.60;   BMIX_MAG =  1.00
     AMIN     =   0.10
     WC   =   100.;   INIMIX=   1;  MIXPRE=   1;  MAXMIX= -45

 Intra band minimization:
   WEIMIN = 0.0000     energy-eigenvalue tresh-hold
   EBREAK =  0.25E-05  absolut break condition
   DEPER  =   0.30     relativ break condition  

   TIME   =   0.40     timestep for ELM

  volume/ion in A,a.u.               =     546.16      3685.65
  Fermi-wavevector in a.u.,A,eV,Ry     =   0.353527  0.668070  1.700478  0.124982
  Thomas-Fermi vector in A             =   1.267843
 
 Write flags
   LWAVE  =      F    write WAVECAR
   LCHARG =      F    write CHGCAR
   LVTOT  =      F    write LOCPOT, total local potential
   LVHAR  =      F    write LOCPOT, Hartree potential only
   LELF   =      F    write electronic localiz. function (ELF)
   LORBIT =      0    0 simple, 1 ext, 2 COOP (PROOUT)


 Dipole corrections
   LMONO  =      F    monopole corrections only (constant potential shift)
   LDIPOL =      F    correct potential (dipole corrections)
   IDIPOL =      0    1-x, 2-y, 3-z, 4-all directions 
   EPSILON=  1.0000000 bulk dielectric constant

 Exchange correlation treatment:
   GGA     =    --    GGA type
   LEXCH   =     8    internal setting for exchange type
   VOSKOWN=      0    Vosko Wilk Nusair interpolation
   LHFCALC =     F    Hartree Fock is set to
   LHFONE  =     F    Hartree Fock one center treatment
   AEXX    =    0.0000 exact exchange contribution

 Linear response parameters
   LEPSILON=     F    determine dielectric tensor
   LRPA    =     F    only Hartree local field effects (RPA)
   LNABLA  =     F    use nabla operator in PAW spheres
   LVEL    =     F    velocity operator in full k-point grid
   LINTERFAST=   F  fast interpolation
   KINTER  =     0    interpolate to denser k-point grid
   CSHIFT  =0.1000    complex shift for real part using Kramers Kronig
   OMEGAMAX=  -1.0    maximum frequency
   DEG_THRESHOLD= 0.2000000E-02 threshold for treating states as degnerate
   RTIME   =    0.100 relaxation time in fs

 Orbital magnetization related:
   ORBITALMAG=     F  switch on orbital magnetization
   LCHIMAG   =     F  perturbation theory with respect to B field
   DQ        =  0.001000  dq finite difference perturbation B field



--------------------------------------------------------------------------------------------------------


 Static calculation
 charge density and potential will be updated during run
 spin polarized calculation
 RMM-DIIS sequential band-by-band and
  variant of blocked Davidson during initial phase
 perform sub-space diagonalisation
    before iterative eigenvector-optimisation
 modified Broyden-mixing scheme, WC =      100.0
 initial mixing is a Kerker type mixing with AMIX =  0.4000 and BMIX =      1.0000
 Hartree-type preconditioning will be used
 using additional bands            4
 reciprocal scheme for non local part
 use partial core corrections
 calculate Harris-corrections to forces 
   (improved forces if not selfconsistent)
 use gradient corrections 
 use of overlap-Matrix (Vanderbilt PP)
 Gauss-broadening in eV      SIGMA  =   0.20


--------------------------------------------------------------------------------------------------------


  energy-cutoff  :      400.00
  volume of cell :     1092.32
      direct lattice vectors                 reciprocal lattice vectors
    10.100000000  0.000000000  0.000000000     0.099009901  0.000000000  0.000000000
     0.000000000 10.300000000  0.000000000     0.000000000  0.097087379  0.000000000
     0.000000000  0.000000000 10.500000000     0.000000000  0.000000000  0.095238095

  length of vectors
    10.100000000 10.300000000 10.500000000     0.099009901  0.097087379  0.095238095


 
 k-points in units of 2pi/SCALE and weight: Gamma-point only                        
   0.00000000  0.00000000  0.00000000       1.000
 
 k-points in reciprocal lattice and weights: Gamma-point only                        
   0.00000000  0.00000000  0.00000000       1.000
 
 position of ions in fractional coordinates (direct lattice) 
   0.00000000  0.00000000  0.00000000
   0.00000000  0.00000000  0.28571429
 
 position of ions in cartesian coordinates  (Angst):
   0.00000000  0.00000000  0.00000000
   0.00000000  0.00000000  3.00000000
 


--------------------------------------------------------------------------------------------------------


 k-point  1 :   0.0000 0.0000 0.0000  plane waves:   19819

 maximum and minimum number of plane-waves per node :     19819    19819

 maximum number of plane-waves:     19819
 maximum index in each direction: 
   IXMAX=   16   IYMAX=   16   IZMAX=   17
   IXMIN=  -16   IYMIN=  -16   IZMIN=  -17

 WARNING: aliasing errors must be expected set NGX to  66 to avoid them
 WARNING: aliasing errors must be expected set NGY to  66 to avoid them
 WARNING: aliasing errors must be expected set NGZ to  70 to avoid them
 aliasing errors are usually negligible using standard VASP settings
 and one can safely disregard these warnings

 serial   3D FFT for wavefunctions
 parallel 3D FFT for charge:
    minimum data exchange during FFTs selected (reduces bandwidth)


 total amount of memory used by VASP on root node   175530. kBytes
========================================================================

   base      :      30000. kBytes
   nonl-proj :       3171. kBytes
   fftplans  :      37440. kBytes
   grid      :      98560. kBytes
   one-center:         12. kBytes
   wavefun   :       6347. kBytes
 
 Broyden mixing: mesh for mixing (old mesh)
   NGX = 33   NGY = 33   NGZ = 35
  (NGX  =100   NGY  =100   NGZ  =108)
  gives a total of  38115 points

 initial charge density was supplied:
 charge density of overlapping atoms calculated
 number of electron      11.0000000 magnetization       2.0000000
 keeping initial charge density in first step


--------------------------------------------------------------------------------------------------------


 Maximum index for augmentation-charges         1555 (set IRDMAX)


--------------------------------------------------------------------------------------------------------


 First call to EWALD:  gamma=   0.172
 Maximum number of real-space cells 3x 3x 3
 Maximum number of reciprocal cells 3x 3x 3

 FEWALD executed in parallel
    FEWALD:  cpu time    0.00: real time    0.00


----------------------------------------- Iteration    1(   1)  ---------------------------------------


    POTLOK:  cpu time    1.66: real time    1.67
    SETDIJ:  cpu time    0.02: real time    0.02
     EDDAV:  cpu time    0.63: real time    0.63
       DOS:  cpu time    0.00: real time    0.00
    --------------------------------------------
      LOOP:  cpu time    2.31: real time    2.31

 eigenvalue-minimisations  :    56
 total energy-change (2. order) : 0.6712454E+02  (-0.1905538E+03)
 number of electron      11.0000000 magnetization       2.0000000
 augmentation part       11.0000000 magnetization       2.0000000

 Free energy of the ion-electron system (eV)
  ---------------------------------------------------
  alpha Z        PSCENC =         0.45022818
  Ewald energy   TEWEN  =       -88.19225366
  -1/2 Hartree   DENC   =      -508.99702097
  -exchange  EXHF       =         0.00000000
  -V(xc)+E(xc)   XCENC  =        43.96083851
  PAW double counting   =       551.20228741     -554.18101748
  entropy T*S    EENTRO =        -0.12175581
  eigenvalues    EBANDS =       -73.73496541
  atomic energy  EATOM  =       696.73819845
  ---------------------------------------------------
  free energy    TOTEN  =        67.12453922 eV

  energy without entropy =       67.24629503  energy(sigma->0) =       67.18541712


--------------------------------------------------------------------------------------------------------




----------------------------------------- Iteration    1(   2)  ---------------------------------------


     EDDAV:  cpu time    0.82: real time    0.82
       DOS:  cpu time    0.00: real time    0.00
    --------------------------------------------
      LOOP:  cpu time    0.82: real time    0.82

 eigenvalue-minimisations  :    78
 total energy-change (2. order) :-0.5508855E+02  (-0.5482394E+02)
 number of electron      11.0000000 magnetization       2.0000000
 augmentation part       11.0000000 magnetization       2.0000000

 Free energy of the ion-electron system (eV)
  ---------------------------------------------------
  alpha Z        PSCENC =         0.45022818
  Ewald energy   TEWEN  =       -88.19225366
  -1/2 Hartree   DENC   =      -508.99702097
  -exchange  EXHF       =         0.00000000
  -V(xc)+E(xc)   XCENC  =        43.96083851
  PAW double counting   =       551.20228741     -554.18101748
  entropy T*S    EENTRO =        -0.02523873
  eigenvalues    EBANDS =      -128.92003597
  atomic energy  EATOM  =       696.73819845
  ---------------------------------------------------
  free energy    TOTEN  =        12.03598573 eV

  energy without entropy =       12.06122447  energy(sigma->0) =       12.04860510


--------------------------------------------------------------------------------------------------------




----------------------------------------- Iteration    1(   3)  ---------------------------------------


     EDDAV:  cpu time    0.60: real time    0.60
       DOS:  cpu time    0.00: real time    0.00
    --------------------------------------------
      LOOP:  cpu time    0.60: real time    0.60

 eigenvalue-minimisations  :    54
 total energy-change (2. order) :-0.1549882E+02  (-0.1541490E+02)
 number of electron      11.0000000 magnetization       2.0000000
 augmentation part       11.0000000 magnetization       2.0000000

 Free energy of the ion-electron system (eV)
  ---------------------------------------------------
  alpha Z        PSCENC =         0.45022818
  Ewald energy   TEWEN  =       -88.19225366
  -1/2 Hartree   DENC   =      -508.99702097
  -exchange  EXHF       =         0.00000000
  -V(xc)+E(xc)   XCENC  =        43.96083851
  PAW double counting   =       551.20228741     -554.18101748
  entropy T*S    EENTRO =        -0.13522604
  eigenvalues    EBANDS =      -144.30886924
  atomic energy  EATOM  =       696.73819845
  ---------------------------------------------------
  free energy    TOTEN  =        -3.46283484 eV

  energy without entropy =       -3.32760880  energy(sigma->0) =       -3.39522182


--------------------------------------------------------------------------------------------------------




----------------------------------------- Iteration    1(   4)  ---------------------------------------


     EDDAV:  cpu time    0.54: real time    0.55
       DOS:  cpu time    0.00: real time    0.00
    --------------------------------------------
      LOOP:  cpu time    0.55: real time    0.55

 eigenvalue-minimisations  :    48
 total energy-change (2. order) :-0.6717922E+00  (-0.6619483E+00)
 number of electron      11.0000000 magnetization       2.0000000
 augmentation part       11.0000000 magnetization       2.0000000

 Free energy of the ion-electron system (eV)
  ---------------------------------------------------
  alpha Z        PSCENC =         0.45022818
  Ewald energy   TEWEN  =       -88.19225366
  -1/2 Hartree   DENC   =      -508.99702097
  -exchange  EXHF       =         0.00000000
  -V(xc)+E(xc)   XCENC  =        43.96083851
  PAW double counting   =       551.20228741     -554.18101748
  entropy T*S    EENTRO =        -0.14991066
  eigenvalues    EBANDS =      -144.96597682
  atomic energy  EATOM  =       696.73819845
  ---------------------------------------------------
  free energy    TOTEN  =        -4.13462704 eV

  energy without entropy =       -3.98471638  energy(sigma->0) =       -4.05967171


--------------------------------------------------------------------------------------------------------




----------------------------------------- Iteration    1(   5)  ---------------------------------------


     EDDAV:  cpu time    0.68: real time    0.68
       DOS:  cpu time    0.00: real time    0.00
    CHARGE:  cpu time    0.11: real time    0.11
    MIXING:  cpu time    0.03: real time    0.03
    --------------------------------------------
      LOOP:  cpu time    0.82: real time    0.82

 eigenvalue-minimisations  :    64
 total energy-change (2. order) :-0.1579614E-01  (-0.1579411E-01)
 number of electron      11.0000054 magnetization       1.5784872
 augmentation part        0.7776721 magnetization       0.7184792

 Broyden mixing:
  rms(total) = 0.16241E+01    rms(broyden)= 0.16234E+01
  rms(prec ) = 0.25183E+01
  weight for this iteration     100.00

 Free energy of the ion-electron system (eV)
  ---------------------------------------------------
  alpha Z        PSCENC =         0.45022818
  Ewald energy   TEWEN  =       -88.19225366
  -1/2 Hartree   DENC   =      -508.99702097
  -exchange  EXHF       =         0.00000000
  -V(xc)+E(xc)   XCENC  =        43.96083851
  PAW double counting   =       551.20228741     -554.18101748
  entropy T*S    EENTRO =        -0.14991207
  eigenvalues    EBANDS =      -144.98177155
  atomic energy  EATOM  =       696.73819845
  ---------------------------------------------------
  free energy    TOTEN  =        -4.15042318 eV

  energy without entropy =       -4.00051111  energy(sigma->0) =       -4.07546715


--------------------------------------------------------------------------------------------------------




----------------------------------------- Iteration    1(   6)  ---------------------------------------


    POTLOK:  cpu time    1.66: real time    1.66
    SETDIJ:  cpu time    0.02: real time    0.02
    EDDIAG:  cpu time    0.10: real time    0.10
  RMM-DIIS:  cpu time    0.47: real time    0.47
    ORTHCH:  cpu time    0.00: real time    0.01
       DOS:  cpu time    0.00: real time    0.00
    CHARGE:  cpu time    0.12: real time    0.12
    MIXING:  cpu time    0.03: real time    0.03
    --------------------------------------------
      LOOP:  cpu time    2.40: real time    2.41

 eigenvalue-minimisations  :    45
 total energy-change (2. order) :-0.3344203E+02  (-0.3020453E+01)
 number of electron      11.0000002 magnetization       1.4991068
 augmentation part        0.4517062 magnetization       0.6810313

 Broyden mixing:
  rms(total) = 0.35444E+01    rms(broyden)= 0.35420E+01
  rms(prec ) = 0.52864E+01
  weight for this iteration     100.00

 eigenvalues of (default mixing * dielectric matrix)
  average eigenvalue GAMMA=   0.3246
  0.3246

 Free energy of the ion-electron system (eV)
  ---------------------------------------------------
  alpha Z        PSCENC =         0.45022818
  Ewald energy   TEWEN  =       -88.19225366
  -1/2 Hartree   DENC   =      -529.29538837
  -exchange  EXHF       =         0.00000000
  -V(xc)+E(xc)   XCENC  =        46.57130539
  PAW double counting   =       595.92641108     -599.21025114
  entropy T*S    EENTRO =        -0.13201234
  eigenvalues    EBANDS =      -160.44869351
  atomic energy  EATOM  =       696.73819845
  ---------------------------------------------------
  free energy    TOTEN  =       -37.59245592 eV

  energy without entropy =      -37.46044358  energy(sigma->0) =      -37.52644975


--------------------------------------------------------------------------------------------------------




----------------------------------------- Iteration    1(   7)  ---------------------------------------


    POTLOK:  cpu time    1.66: real time    1.67
    SETDIJ:  cpu time    0.02: real time    0.02
    EDDIAG:  cpu time    0.10: real time    0.10
  RMM-DIIS:  cpu time    0.49: real time    0.49
    ORTHCH:  cpu time    0.01: real time    0.01
       DOS:  cpu time    0.00: real time    0.00
    CHARGE:  cpu time    0.12: real time    0.12
    MIXING:  cpu time    0.03: real time    0.03
    --------------------------------------------
      LOOP:  cpu time    2.43: real time    2.43

 eigenvalue-minimisations  :    47
 total energy-change (2. order) : 0.3078001E+02  (-0.8829992E+00)
 number of electron      11.0000000 magnetization       1.4593748
 augmentation part        0.3921249 magnetization       0.6491866

 Broyden mixing:
  rms(total) = 0.27783E+01    rms(broyden)= 0.27783E+01
  rms(prec ) = 0.43259E+01
  weight for this iteration     100.00

 eigenvalues of (default mixing * dielectric matrix)
  average eigenvalue GAMMA=   0.4929
  0.4929  0.4929

 Free energy of the ion-electron system (eV)
  ---------------------------------------------------
  alpha Z        PSCENC =         0.45022818
  Ewald energy   TEWEN  =       -88.19225366
  -1/2 Hartree   DENC   =      -517.01389583
  -exchange  EXHF       =         0.00000000
  -V(xc)+E(xc)   XCENC  =        45.08743642
  PAW double counting   =       571.23460366     -574.36134860
  entropy T*S    EENTRO =        -0.14032005
  eigenvalues    EBANDS =      -140.61509496
  atomic energy  EATOM  =       696.73819845
  ---------------------------------------------------
  free energy    TOTEN  =        -6.81244638 eV

  energy without entropy =       -6.67212633  energy(sigma->0) =       -6.74228636


--------------------------------------------------------------------------------------------------------




----------------------------------------- Iteration    1(   8)  ---------------------------------------


    POTLOK:  cpu time    1.66: real time    1.66
    SETDIJ:  cpu time    0.02: real time    0.02
    EDDIAG:  cpu time    0.10: real time    0.10
  RMM-DIIS:  cpu time    0.46: real time    0.47
    ORTHCH:  cpu time    0.00: real time    0.01
       DOS:  cpu time    0.00: real time    0.00
    CHARGE:  cpu time    0.12: real time    0.12
    MIXING:  cpu time    0.03: real time    0.03
    --------------------------------------------
      LOOP:  cpu time    2.41: real time    2.41

 eigenvalue-minimisations  :    45
 total energy-change (2. order) : 0.3722937E+01  (-0.4897210E+00)
 number of electron      11.0000048 magnetization       1.2945336
 augmentation part        0.7668183 magnetization       0.4058339

 Broyden mixing:
  rms(total) = 0.15366E+01    rms(broyden)= 0.15311E+01
  rms(prec ) = 0.24172E+01
  weight for this iteration     100.00

 eigenvalues of (default mixing * dielectric matrix)
  average eigenvalue GAMMA=   0.5129
  0.8687  0.3350  0.3350

 Free energy of the ion-electron system (eV)
  ---------------------------------------------------
  alpha Z        PSCENC =         0.45022818
  Ewald energy   TEWEN  =       -88.19225366
  -1/2 Hartree   DENC   =      -510.54802036
  -exchange  EXHF       =         0.00000000
  -V(xc)+E(xc)   XCENC  =        44.58756291
  PAW double counting   =       561.87461045     -564.87132970
  entropy T*S    EENTRO =        -0.12662110
  eigenvalues    EBANDS =      -143.00188427
  atomic energy  EATOM  =       696.73819845
  ---------------------------------------------------
  free energy    TOTEN  =        -3.08950911 eV

  energy without entropy =       -2.96288801  energy(sigma->0) =       -3.02619856


--------------------------------------------------------------------------------------------------------




----------------------------------------- Iteration    1(   9)  ---------------------------------------


    POTLOK:  cpu time    1.66: real time    1.66
    SETDIJ:  cpu time    0.02: real time    0.02
    EDDIAG:  cpu time    0.10: real time    0.10
  RMM-DIIS:  cpu time    0.45: real time    0.45
    ORTHCH:  cpu time    0.01: real time    0.01
       DOS:  cpu time    0.00: real time    0.00
    CHARGE:  cpu time    0.12: real time    0.12
    MIXING:  cpu time    0.04: real time    0.04
    --------------------------------------------
      LOOP:  cpu time    2.40: real time    2.40

 eigenvalue-minimisations  :    43
 total energy-change (2. order) : 0.9827603E+00  (-0.2217388E-01)
 number of electron      11.0000044 magnetization       1.3473956
 augmentation part        0.7294006 magnetization       0.1488948

 Broyden mixing:
  rms(total) = 0.12106E+01    rms(broyden)= 0.12101E+01
  rms(prec ) = 0.19003E+01
  weight for this iteration     100.00

 eigenvalues of (default mixing * dielectric matrix)
  average eigenvalue GAMMA=   0.4042
  0.6859  0.3316  0.3316  0.2678

 Free energy of the ion-electron system (eV)
  ---------------------------------------------------
  alpha Z        PSCENC =         0.45022818
  Ewald energy   TEWEN  =       -88.19225366
  -1/2 Hartree   DENC   =      -511.99899124
  -exchange  EXHF       =         0.00000000
  -V(xc)+E(xc)   XCENC  =        44.41535590
  PAW double counting   =       566.46221560     -569.48089194
  entropy T*S    EENTRO =        -0.16295511
  eigenvalues    EBANDS =      -140.33765502
  atomic energy  EATOM  =       696.73819845
  ---------------------------------------------------
  free energy    TOTEN  =        -2.10674885 eV

  energy without entropy =       -1.94379374  energy(sigma->0) =       -2.02527129


--------------------------------------------------------------------------------------------------------




----------------------------------------- Iteration    1(  10)  ---------------------------------------


    POTLOK:  cpu time    1.66: real time    1.66
    SETDIJ:  cpu time    0.02: real time    0.02
    EDDIAG:  cpu time    0.10: real time    0.10
  RMM-DIIS:  cpu time    0.49: real time    0.50
    ORTHCH:  cpu time    0.01: real time    0.01
       DOS:  cpu time    0.00: real time    0.00
    CHARGE:  cpu time    0.12: real time    0.12
    MIXING:  cpu time    0.04: real time    0.04
    --------------------------------------------
      LOOP:  cpu time    2.44: real time    2.44

 eigenvalue-minimisations  :    48
 total energy-change (2. order) :-0.1665125E-01  (-0.6501771E-02)
 number of electron      11.0000031 magnetization       1.0864397
 augmentation part        0.6707664 magnetization      -1.1114139

 Broyden mixing:
  rms(total) = 0.91079E+00    rms(broyden)= 0.90987E+00
  rms(prec ) = 0.12004E+01
  weight for this iteration     100.00

 eigenvalues of (default mixing * dielectric matrix)
  average eigenvalue GAMMA=   0.5386
  1.4564  0.3200  0.3200  0.3828  0.2138

 Free energy of the ion-electron system (eV)
  ---------------------------------------------------
  alpha Z        PSCENC =         0.45022818
  Ewald energy   TEWEN  =       -88.19225366
  -1/2 Hartree   DENC   =      -512.02176290
  -exchange  EXHF       =         0.00000000
  -V(xc)+E(xc)   XCENC  =        44.28235827
  PAW double counting   =       566.51544429     -569.52902766
  entropy T*S    EENTRO =        -0.19041002
  eigenvalues    EBANDS =      -140.17617506
  atomic energy  EATOM  =       696.73819845
  ---------------------------------------------------
  free energy    TOTEN  =        -2.12340010 eV

  energy without entropy =       -1.93299008  energy(sigma->0) =       -2.02819509


--------------------------------------------------------------------------------------------------------




----------------------------------------- Iteration    1(  11)  ---------------------------------------


    POTLOK:  cpu time    1.66: real time    1.66
    SETDIJ:  cpu time    0.02: real time    0.02
    EDDIAG:  cpu time    0.10: real time    0.10
  RMM-DIIS:  cpu time    0.45: real time    0.45
    ORTHCH:  cpu time    0.00: real time    0.01
       DOS:  cpu time    0.00: real time    0.00
    CHARGE:  cpu time    0.12: real time    0.12
    MIXING:  cpu time    0.04: real time    0.04
    --------------------------------------------
      LOOP:  cpu time    2.40: real time    2.40

 eigenvalue-minimisations  :    43
 total energy-change (2. order) : 0.6767903E+00  (-0.4363482E-02)
 number of electron      11.0000042 magnetization       1.0087843
 augmentation part        0.7015471 magnetization      -0.3371714

 Broyden mixing:
  rms(total) = 0.10568E+01    rms(broyden)= 0.10564E+01
  rms(prec ) = 0.16019E+01
  weight for this iteration     100.00

 eigenvalues of (default mixing * dielectric matrix)
  average eigenvalue GAMMA=   0.4571
  1.4481  0.3218  0.3218  0.4071  0.1252  0.1187

 Free energy of the ion-electron system (eV)
  ---------------------------------------------------
  alpha Z        PSCENC =         0.45022818
  Ewald energy   TEWEN  =       -88.19225366
  -1/2 Hartree   DENC   =      -512.48933936
  -exchange  EXHF       =         0.00000000
  -V(xc)+E(xc)   XCENC  =        44.62837868
  PAW double counting   =       568.67088023     -571.69761105
  entropy T*S    EENTRO =        -0.17823588
  eigenvalues    EBANDS =      -139.37685538
  atomic energy  EATOM  =       696.73819845
  ---------------------------------------------------
  free energy    TOTEN  =        -1.44660980 eV

  energy without entropy =       -1.26837392  energy(sigma->0) =       -1.35749186


--------------------------------------------------------------------------------------------------------




----------------------------------------- Iteration    1(  12)  ---------------------------------------


    POTLOK:  cpu time    1.66: real time    1.66
    SETDIJ:  cpu time    0.02: real time    0.02
    EDDIAG:  cpu time    0.10: real time    0.10
  RMM-DIIS:  cpu time    0.47: real time    0.47
    ORTHCH:  cpu time    0.01: real time    0.01
       DOS:  cpu time    0.00: real time    0.00
    CHARGE:  cpu time    0.12: real time    0.12
    MIXING:  cpu time    0.05: real time    0.05
    --------------------------------------------
      LOOP:  cpu time    2.42: real time    2.42

 eigenvalue-minimisations  :    45
 total energy-change (2. order) : 0.5250859E-01  (-0.1778975E-02)
 number of electron      11.0000047 magnetization       0.7879523
 augmentation part        0.7235359 magnetization      -0.2106487

 Broyden mixing:
  rms(total) = 0.12156E+01    rms(broyden)= 0.12154E+01
  rms(prec ) = 0.18976E+01
  weight for this iteration     100.00

 eigenvalues of (default mixing * dielectric matrix)
  average eigenvalue GAMMA=   0.5413
  1.2110  0.5514  0.4870  0.4870  0.3324  0.3324  0.3876

 Free energy of the ion-electron system (eV)
  ---------------------------------------------------
  alpha Z        PSCENC =         0.45022818
  Ewald energy   TEWEN  =       -88.19225366
  -1/2 Hartree   DENC   =      -512.41380824
  -exchange  EXHF       =         0.00000000
  -V(xc)+E(xc)   XCENC  =        44.68712807
  PAW double counting   =       568.49144512     -571.51698908
  entropy T*S    EENTRO =        -0.13719501
  eigenvalues    EBANDS =      -139.50085504
  atomic energy  EATOM  =       696.73819845
  ---------------------------------------------------
  free energy    TOTEN  =        -1.39410122 eV

  energy without entropy =       -1.25690620  energy(sigma->0) =       -1.32550371


--------------------------------------------------------------------------------------------------------




----------------------------------------- Iteration    1(  13)  ---------------------------------------


    POTLOK:  cpu time    1.66: real time    1.66
    SETDIJ:  cpu time    0.01: real time    0.02
    EDDIAG:  cpu time    0.10: real time    0.10
  RMM-DIIS:  cpu time    0.47: real time    0.47
    ORTHCH:  cpu time    0.01: real time    0.01
       DOS:  cpu time    0.00: real time    0.00
    CHARGE:  cpu time    0.12: real time    0.12
    MIXING:  cpu time    0.05: real time    0.05
    --------------------------------------------
      LOOP:  cpu time    2.42: real time    2.42

 eigenvalue-minimisations  :    45
 total energy-change (2. order) : 0.2845016E+00  (-0.1659835E-02)
 number of electron      11.0000044 magnetization       0.8261413
 augmentation part        0.6917168 magnetization      -0.3116620

 Broyden mixing:
  rms(total) = 0.10265E+01    rms(broyden)= 0.10263E+01
  rms(prec ) = 0.15176E+01
  weight for this iteration     100.00

 eigenvalues of (default mixing * dielectric matrix)
  average eigenvalue GAMMA=   0.5167
  0.9599  0.6245  0.4647  0.4647  0.3345  0.3345  0.4755  0.4755

 Free energy of the ion-electron system (eV)
  ---------------------------------------------------
  alpha Z        PSCENC =         0.45022818
  Ewald energy   TEWEN  =       -88.19225366
  -1/2 Hartree   DENC   =      -512.54435874
  -exchange  EXHF       =         0.00000000
  -V(xc)+E(xc)   XCENC  =        44.57367480
  PAW double counting   =       568.66275667     -571.68835852
  entropy T*S    EENTRO =        -0.16823806
  eigenvalues    EBANDS =      -138.94124874
  atomic energy  EATOM  =       696.73819845
  ---------------------------------------------------
  free energy    TOTEN  =        -1.10959962 eV

  energy without entropy =       -0.94136156  energy(sigma->0) =       -1.02548059


--------------------------------------------------------------------------------------------------------




----------------------------------------- Iteration    1(  14)  ---------------------------------------


    POTLOK:  cpu time    1.66: real time    1.66
    SETDIJ:  cpu time    0.02: real time    0.02
    EDDIAG:  cpu time    0.10: real time    0.10
  RMM-DIIS:  cpu time    0.45: real time    0.45
    ORTHCH:  cpu time    0.01: real time    0.01
       DOS:  cpu time    0.00: real time    0.00
    CHARGE:  cpu time    0.12: real time    0.12
    MIXING:  cpu time    0.05: real time    0.05
    --------------------------------------------
      LOOP:  cpu time    2.41: real time    2.41

 eigenvalue-minimisations  :    43
 total energy-change (2. order) :-0.3918114E-01  (-0.1083538E-03)
 number of electron      11.0000044 magnetization       0.6803011
 augmentation part        0.6987198 magnetization      -0.4452279

 Broyden mixing:
  rms(total) = 0.10688E+01    rms(broyden)= 0.10688E+01
  rms(prec ) = 0.16069E+01
  weight for this iteration     100.00

 eigenvalues of (default mixing * dielectric matrix)
  average eigenvalue GAMMA=   0.5771
  1.4625  0.7403  0.5015  0.5015  0.3295  0.3295  0.4321  0.4485  0.4485

 Free energy of the ion-electron system (eV)
  ---------------------------------------------------
  alpha Z        PSCENC =         0.45022818
  Ewald energy   TEWEN  =       -88.19225366
  -1/2 Hartree   DENC   =      -512.48757175
  -exchange  EXHF       =         0.00000000
  -V(xc)+E(xc)   XCENC  =        44.59569847
  PAW double counting   =       568.52779942     -571.55267026
  entropy T*S    EENTRO =        -0.16196297
  eigenvalues    EBANDS =      -139.06624664
  atomic energy  EATOM  =       696.73819845
  ---------------------------------------------------
  free energy    TOTEN  =        -1.14878076 eV

  energy without entropy =       -0.98681779  energy(sigma->0) =       -1.06779927


--------------------------------------------------------------------------------------------------------




----------------------------------------- Iteration    1(  15)  ---------------------------------------


    POTLOK:  cpu time    1.66: real time    1.66
    SETDIJ:  cpu time    0.02: real time    0.02
    EDDIAG:  cpu time    0.10: real time    0.10
  RMM-DIIS:  cpu time    0.46: real time    0.47
    ORTHCH:  cpu time    0.01: real time    0.01
       DOS:  cpu time    0.00: real time    0.00
    CHARGE:  cpu time    0.12: real time    0.12
    MIXING:  cpu time    0.06: real time    0.06
    --------------------------------------------
      LOOP:  cpu time    2.42: real time    2.43

 eigenvalue-minimisations  :    45
 total energy-change (2. order) : 0.2100590E+00  (-0.3322156E-02)
 number of electron      11.0000034 magnetization       0.7089674
 augmentation part        0.6004007 magnetization      -0.3800892

 Broyden mixing:
  rms(total) = 0.89484E+00    rms(broyden)= 0.89298E+00
  rms(prec ) = 0.89910E+00
  weight for this iteration     100.00

 eigenvalues of (default mixing * dielectric matrix)
  average eigenvalue GAMMA=   0.5524
  1.4171  0.7122  0.6254  0.6254  0.4978  0.4978  0.3302  0.3302  0.2817  0.2065

 Free energy of the ion-electron system (eV)
  ---------------------------------------------------
  alpha Z        PSCENC =         0.45022818
  Ewald energy   TEWEN  =       -88.19225366
  -1/2 Hartree   DENC   =      -513.28677819
  -exchange  EXHF       =         0.00000000
  -V(xc)+E(xc)   XCENC  =        44.65099634
  PAW double counting   =       570.85257071     -573.88916865
  entropy T*S    EENTRO =        -0.16207871
  eigenvalues    EBANDS =      -138.10043624
  atomic energy  EATOM  =       696.73819845
  ---------------------------------------------------
  free energy    TOTEN  =        -0.93872177 eV

  energy without entropy =       -0.77664306  energy(sigma->0) =       -0.85768242


--------------------------------------------------------------------------------------------------------




----------------------------------------- Iteration    1(  16)  ---------------------------------------


    POTLOK:  cpu time    1.66: real time    1.66
    SETDIJ:  cpu time    0.02: real time    0.02
    EDDIAG:  cpu time    0.10: real time    0.10
  RMM-DIIS:  cpu time    0.42: real time    0.43
    ORTHCH:  cpu time    0.01: real time    0.01
       DOS:  cpu time    0.00: real time    0.00
    CHARGE:  cpu time    0.12: real time    0.12
    MIXING:  cpu time    0.06: real time    0.06
    --------------------------------------------
      LOOP:  cpu time    2.39: real time    2.39

 eigenvalue-minimisations  :    41
 total energy-change (2. order) : 0.8580559E-01  (-0.1476144E-02)
 number of electron      11.0000034 magnetization       0.9754743
 augmentation part        0.5904243 magnetization      -0.2485079

 Broyden mixing:
  rms(total) = 0.87869E+00    rms(broyden)= 0.87863E+00
  rms(prec ) = 0.88889E+00
  weight for this iteration     100.00

 eigenvalues of (default mixing * dielectric matrix)
  average eigenvalue GAMMA=   0.5554
  1.2153  0.5971  0.5971  0.7125  0.7125  0.6872  0.3301  0.3301  0.3960  0.3960
  0.1362

 Free energy of the ion-electron system (eV)
  ---------------------------------------------------
  alpha Z        PSCENC =         0.45022818
  Ewald energy   TEWEN  =       -88.19225366
  -1/2 Hartree   DENC   =      -513.23677045
  -exchange  EXHF       =         0.00000000
  -V(xc)+E(xc)   XCENC  =        44.74679763
  PAW double counting   =       570.76043445     -573.79508842
  entropy T*S    EENTRO =        -0.18489695
  eigenvalues    EBANDS =      -138.13956542
  atomic energy  EATOM  =       696.73819845
  ---------------------------------------------------
  free energy    TOTEN  =        -0.85291618 eV

  energy without entropy =       -0.66801923  energy(sigma->0) =       -0.76046771


--------------------------------------------------------------------------------------------------------




----------------------------------------- Iteration    1(  17)  ---------------------------------------


    POTLOK:  cpu time    1.66: real time    1.66
    SETDIJ:  cpu time    0.02: real time    0.02
    EDDIAG:  cpu time    0.10: real time    0.10
  RMM-DIIS:  cpu time    0.43: real time    0.43
    ORTHCH:  cpu time    0.01: real time    0.01
       DOS:  cpu time    0.00: real time    0.00
    CHARGE:  cpu time    0.12: real time    0.12
    MIXING:  cpu time    0.06: real time    0.06
    --------------------------------------------
      LOOP:  cpu time    2.40: real time    2.41

 eigenvalue-minimisations  :    42
 total energy-change (2. order) :-0.3521648E+00  (-0.4312636E-02)
 number of electron      11.0000031 magnetization       1.2078899
 augmentation part        0.6193030 magnetization      -1.1534952

 Broyden mixing:
  rms(total) = 0.93788E+00    rms(broyden)= 0.93399E+00
  rms(prec ) = 0.97318E+00
  weight for this iteration     100.00

 eigenvalues of (default mixing * dielectric matrix)
  average eigenvalue GAMMA=   0.6311
  1.1989  1.1989  1.1059  0.6882  0.6882  0.3297  0.3297  0.4385  0.4385  0.6025
  0.4204  0.1331

 Free energy of the ion-electron system (eV)
  ---------------------------------------------------
  alpha Z        PSCENC =         0.45022818
  Ewald energy   TEWEN  =       -88.19225366
  -1/2 Hartree   DENC   =      -512.77421080
  -exchange  EXHF       =         0.00000000
  -V(xc)+E(xc)   XCENC  =        44.57696746
  PAW double counting   =       569.04145951     -572.06975376
  entropy T*S    EENTRO =        -0.18040047
  eigenvalues    EBANDS =      -138.79531592
  atomic energy  EATOM  =       696.73819845
  ---------------------------------------------------
  free energy    TOTEN  =        -1.20508100 eV

  energy without entropy =       -1.02468053  energy(sigma->0) =       -1.11488077


--------------------------------------------------------------------------------------------------------




----------------------------------------- Iteration    1(  18)  ---------------------------------------


    POTLOK:  cpu time    1.66: real time    1.66
    SETDIJ:  cpu time    0.02: real time    0.02
    EDDIAG:  cpu time    0.10: real time    0.10
  RMM-DIIS:  cpu time    0.44: real time    0.44
    ORTHCH:  cpu time    0.01: real time    0.01
       DOS:  cpu time    0.00: real time    0.00
    CHARGE:  cpu time    0.12: real time    0.12
    MIXING:  cpu time    0.07: real time    0.07
    --------------------------------------------
      LOOP:  cpu time    2.41: real time    2.41

 eigenvalue-minimisations  :    42
 total energy-change (2. order) :-0.5436745E+00  (-0.5588006E-02)
 number of electron      11.0000036 magnetization       1.5639005
 augmentation part        0.6806356 magnetization      -0.3620505

 Broyden mixing:
  rms(total) = 0.95840E+00    rms(broyden)= 0.95809E+00
  rms(prec ) = 0.13346E+01
  weight for this iteration     100.00

 eigenvalues of (default mixing * dielectric matrix)
  average eigenvalue GAMMA=   0.6717
  1.4159  1.3448  1.3448  0.8690  0.5508  0.4176  0.7057  0.3297  0.3297  0.4432
  0.4432  0.4045  0.1329

 Free energy of the ion-electron system (eV)
  ---------------------------------------------------
  alpha Z        PSCENC =         0.45022818
  Ewald energy   TEWEN  =       -88.19225366
  -1/2 Hartree   DENC   =      -512.04953540
  -exchange  EXHF       =         0.00000000
  -V(xc)+E(xc)   XCENC  =        44.45448999
  PAW double counting   =       567.59545393     -570.60801412
  entropy T*S    EENTRO =        -0.20341489
  eigenvalues    EBANDS =      -139.93390794
  atomic energy  EATOM  =       696.73819845
  ---------------------------------------------------
  free energy    TOTEN  =        -1.74875547 eV

  energy without entropy =       -1.54534057  energy(sigma->0) =       -1.64704802


--------------------------------------------------------------------------------------------------------




----------------------------------------- Iteration    1(  19)  ---------------------------------------


    POTLOK:  cpu time    1.66: real time    1.66
    SETDIJ:  cpu time    0.02: real time    0.02
    EDDIAG:  cpu time    0.10: real time    0.10
  RMM-DIIS:  cpu time    0.45: real time    0.45
    ORTHCH:  cpu time    0.01: real time    0.01
       DOS:  cpu time    0.00: real time    0.00
    CHARGE:  cpu time    0.12: real time    0.11
    MIXING:  cpu time    0.07: real time    0.07
    --------------------------------------------
      LOOP:  cpu time    2.43: real time    2.43

 eigenvalue-minimisations  :    44
 total energy-change (2. order) :-0.6063014E+00  (-0.7237982E-02)
 number of electron      11.0000038 magnetization       1.6260975
 augmentation part        0.6662062 magnetization      -0.9827788

 Broyden mixing:
  rms(total) = 0.89706E+00    rms(broyden)= 0.89609E+00
  rms(prec ) = 0.11138E+01
  weight for this iteration     100.00

 eigenvalues of (default mixing * dielectric matrix)
  average eigenvalue GAMMA=   0.6195
  1.4188  1.3512  1.3512  0.5500  0.4168  0.7449  0.7449  0.3297  0.3297  0.4416
  0.4416  0.3539  0.1329  0.0657

 Free energy of the ion-electron system (eV)
  ---------------------------------------------------
  alpha Z        PSCENC =         0.45022818
  Ewald energy   TEWEN  =       -88.19225366
  -1/2 Hartree   DENC   =      -511.63921678
  -exchange  EXHF       =         0.00000000
  -V(xc)+E(xc)   XCENC  =        44.26517066
  PAW double counting   =       567.63360883     -570.62534519
  entropy T*S    EENTRO =        -0.23479437
  eigenvalues    EBANDS =      -140.75065296
  atomic energy  EATOM  =       696.73819845
  ---------------------------------------------------
  free energy    TOTEN  =        -2.35505684 eV

  energy without entropy =       -2.12026247  energy(sigma->0) =       -2.23765965


--------------------------------------------------------------------------------------------------------




----------------------------------------- Iteration    1(  20)  ---------------------------------------


    POTLOK:  cpu time    1.66: real time    1.66
    SETDIJ:  cpu time    0.02: real time    0.02
    EDDIAG:  cpu time    0.10: real time    0.10
  RMM-DIIS:  cpu time    0.47: real time    0.47
    ORTHCH:  cpu time    0.00: real time    0.01
       DOS:  cpu time    0.00: real time    0.00
    CHARGE:  cpu time    0.12: real time    0.11
    MIXING:  cpu time    0.08: real time    0.08
    --------------------------------------------
      LOOP:  cpu time    2.46: real time    2.46

 eigenvalue-minimisations  :    46
 total energy-change (2. order) :-0.1209744E+00  (-0.1164884E-02)
 number of electron      11.0000040 magnetization       1.5835976
 augmentation part        0.6751985 magnetization      -0.9210084

 Broyden mixing:
  rms(total) = 0.89544E+00    rms(broyden)= 0.89530E+00
  rms(prec ) = 0.11717E+01
  weight for this iteration     100.00

 eigenvalues of (default mixing * dielectric matrix)
  average eigenvalue GAMMA=   0.6583
  1.5218  1.4074  1.4074  0.5432  0.8145  0.8145  0.3298  0.3298  0.4582  0.4582
  0.4916  0.4496  0.4007  0.3149  0.1330

 Free energy of the ion-electron system (eV)
  ---------------------------------------------------
  alpha Z        PSCENC =         0.45022818
  Ewald energy   TEWEN  =       -88.19225366
  -1/2 Hartree   DENC   =      -511.51089224
  -exchange  EXHF       =         0.00000000
  -V(xc)+E(xc)   XCENC  =        44.25600262
  PAW double counting   =       567.16061067     -570.15046593
  entropy T*S    EENTRO =        -0.23939824
  eigenvalues    EBANDS =      -140.98806104
  atomic energy  EATOM  =       696.73819845
  ---------------------------------------------------
  free energy    TOTEN  =        -2.47603120 eV

  energy without entropy =       -2.23663295  energy(sigma->0) =       -2.35633208


--------------------------------------------------------------------------------------------------------




----------------------------------------- Iteration    1(  21)  ---------------------------------------


    POTLOK:  cpu time    1.66: real time    1.66
    SETDIJ:  cpu time    0.02: real time    0.02
    EDDIAG:  cpu time    0.10: real time    0.10
  RMM-DIIS:  cpu time    0.48: real time    0.48
    ORTHCH:  cpu time    0.01: real time    0.01
       DOS:  cpu time    0.00: real time    0.00
    CHARGE:  cpu time    0.11: real time    0.11
    MIXING:  cpu time    0.08: real time    0.08
    --------------------------------------------
      LOOP:  cpu time    2.46: real time    2.46

 eigenvalue-minimisations  :    46
 total energy-change (2. order) : 0.1785438E+00  (-0.6699806E-03)
 number of electron      11.0000037 magnetization       1.5119351
 augmentation part        0.6442187 magnetization      -1.6214563

 Broyden mixing:
  rms(total) = 0.97147E+00    rms(broyden)= 0.97124E+00
  rms(prec ) = 0.10376E+01
  weight for this iteration     100.00

 eigenvalues of (default mixing * dielectric matrix)
  average eigenvalue GAMMA=   0.6282
  1.3982  1.3982  1.2362  0.7148  0.7148  0.5825  0.4253  0.4253  0.3298  0.3298
  0.4935  0.4935  0.5575  0.4094  0.4094  0.1330

 Free energy of the ion-electron system (eV)
  ---------------------------------------------------
  alpha Z        PSCENC =         0.45022818
  Ewald energy   TEWEN  =       -88.19225366
  -1/2 Hartree   DENC   =      -511.80967257
  -exchange  EXHF       =         0.00000000
  -V(xc)+E(xc)   XCENC  =        44.28347158
  PAW double counting   =       567.94961895     -570.94482617
  entropy T*S    EENTRO =        -0.24504814
  eigenvalues    EBANDS =      -140.52720407
  atomic energy  EATOM  =       696.73819845
  ---------------------------------------------------
  free energy    TOTEN  =        -2.29748744 eV

  energy without entropy =       -2.05243930  energy(sigma->0) =       -2.17496337


--------------------------------------------------------------------------------------------------------




----------------------------------------- Iteration    1(  22)  ---------------------------------------


    POTLOK:  cpu time    1.66: real time    1.66
    SETDIJ:  cpu time    0.02: real time    0.02
    EDDIAG:  cpu time    0.10: real time    0.10
  RMM-DIIS:  cpu time    0.46: real time    0.46
    ORTHCH:  cpu time    0.00: real time    0.01
       DOS:  cpu time    0.00: real time    0.00
    CHARGE:  cpu time    0.12: real time    0.11
    MIXING:  cpu time    0.09: real time    0.09
    --------------------------------------------
      LOOP:  cpu time    2.45: real time    2.45

 eigenvalue-minimisations  :    44
 total energy-change (2. order) : 0.4553399E-01  (-0.2945737E-03)
 number of electron      11.0000038 magnetization       1.6036605
 augmentation part        0.6508387 magnetization      -1.3697343

 Broyden mixing:
  rms(total) = 0.95294E+00    rms(broyden)= 0.95292E+00
  rms(prec ) = 0.10568E+01
  weight for this iteration     100.00

 eigenvalues of (default mixing * dielectric matrix)
  average eigenvalue GAMMA=   0.6438
  1.4907  1.4907  0.7594  0.7594  0.8025  0.8025  0.5864  0.5864  0.3298  0.3298
  0.5364  0.5222  0.4427  0.4427  0.5087  0.4207  0.1330

 Free energy of the ion-electron system (eV)
  ---------------------------------------------------
  alpha Z        PSCENC =         0.45022818
  Ewald energy   TEWEN  =       -88.19225366
  -1/2 Hartree   DENC   =      -511.81874598
  -exchange  EXHF       =         0.00000000
  -V(xc)+E(xc)   XCENC  =        44.24326685
  PAW double counting   =       567.68569800     -570.68292790
  entropy T*S    EENTRO =        -0.25630645
  eigenvalues    EBANDS =      -140.41911095
  atomic energy  EATOM  =       696.73819845
  ---------------------------------------------------
  free energy    TOTEN  =        -2.25195345 eV

  energy without entropy =       -1.99564700  energy(sigma->0) =       -2.12380022


--------------------------------------------------------------------------------------------------------




----------------------------------------- Iteration    1(  23)  ---------------------------------------


    POTLOK:  cpu time    1.66: real time    1.66
    SETDIJ:  cpu time    0.02: real time    0.02
    EDDIAG:  cpu time    0.10: real time    0.10
  RMM-DIIS:  cpu time    0.46: real time    0.46
    ORTHCH:  cpu time    0.01: real time    0.01
       DOS:  cpu time    0.00: real time    0.00
    CHARGE:  cpu time    0.11: real time    0.11
    MIXING:  cpu time    0.10: real time    0.09
    --------------------------------------------
      LOOP:  cpu time    2.46: real time    2.46

 eigenvalue-minimisations  :    44
 total energy-change (2. order) :-0.1615285E+00  (-0.2369745E-03)
 number of electron      11.0000037 magnetization       1.7426598
 augmentation part        0.6461733 magnetization      -1.3594913

 Broyden mixing:
  rms(total) = 0.94871E+00    rms(broyden)= 0.94869E+00
  rms(prec ) = 0.10253E+01
  weight for this iteration     100.00

 eigenvalues of (default mixing * dielectric matrix)
  average eigenvalue GAMMA=   0.6289
  1.5712  1.5712  0.7642  0.7642  0.5713  0.5713  0.5236  0.4185  0.7971  0.7971
  0.3298  0.3298  0.4483  0.4483  0.5589  0.4552  0.1330  0.2669

 Free energy of the ion-electron system (eV)
  ---------------------------------------------------
  alpha Z        PSCENC =         0.45022818
  Ewald energy   TEWEN  =       -88.19225366
  -1/2 Hartree   DENC   =      -511.75443818
  -exchange  EXHF       =         0.00000000
  -V(xc)+E(xc)   XCENC  =        44.22316730
  PAW double counting   =       567.71863202     -570.71222948
  entropy T*S    EENTRO =        -0.24500867
  eigenvalues    EBANDS =      -140.63977790
  atomic energy  EATOM  =       696.73819845
  ---------------------------------------------------
  free energy    TOTEN  =        -2.41348194 eV

  energy without entropy =       -2.16847327  energy(sigma->0) =       -2.29097760


--------------------------------------------------------------------------------------------------------




----------------------------------------- Iteration    1(  24)  ---------------------------------------


    POTLOK:  cpu time    1.66: real time    1.66
    SETDIJ:  cpu time    0.02: real time    0.02
    EDDIAG:  cpu time    0.10: real time    0.10
  RMM-DIIS:  cpu time    0.45: real time    0.45
    ORTHCH:  cpu time    0.00: real time    0.01
       DOS:  cpu time    0.00: real time    0.00
    CHARGE:  cpu time    0.11: real time    0.11
    MIXING:  cpu time    0.10: real time    0.10
    --------------------------------------------
      LOOP:  cpu time    2.45: real time    2.45

 eigenvalue-minimisations  :    43
 total energy-change (2. order) :-0.2403793E+00  (-0.9001659E-03)
 number of electron      11.0000036 magnetization       1.8328706
 augmentation part        0.6577497 magnetization      -1.0814797

 Broyden mixing:
  rms(total) = 0.86372E+00    rms(broyden)= 0.86365E+00
  rms(prec ) = 0.10073E+01
  weight for this iteration     100.00

 eigenvalues of (default mixing * dielectric matrix)
  average eigenvalue GAMMA=   0.7086
  1.5335  1.5473  1.5473  0.7773  0.7773  0.8572  0.8572  0.5777  0.5547  0.5547
  0.3298  0.3298  0.4404  0.4404  0.6233  0.6233  0.5445  0.4157  0.1330

 Free energy of the ion-electron system (eV)
  ---------------------------------------------------
  alpha Z        PSCENC =         0.45022818
  Ewald energy   TEWEN  =       -88.19225366
  -1/2 Hartree   DENC   =      -511.52271513
  -exchange  EXHF       =         0.00000000
  -V(xc)+E(xc)   XCENC  =        44.22099931
  PAW double counting   =       567.51513313     -570.50070786
  entropy T*S    EENTRO =        -0.23978260
  eigenvalues    EBANDS =      -141.12296104
  atomic energy  EATOM  =       696.73819845
  ---------------------------------------------------
  free energy    TOTEN  =        -2.65386122 eV

  energy without entropy =       -2.41407862  energy(sigma->0) =       -2.53396992


--------------------------------------------------------------------------------------------------------




----------------------------------------- Iteration    1(  25)  ---------------------------------------


    POTLOK:  cpu time    1.66: real time    1.66
    SETDIJ:  cpu time    0.01: real time    0.02
    EDDIAG:  cpu time    0.10: real time    0.10
  RMM-DIIS:  cpu time    0.44: real time    0.44
    ORTHCH:  cpu time    0.01: real time    0.01
       DOS:  cpu time    0.00: real time    0.00
    CHARGE:  cpu time    0.11: real time    0.11
    MIXING:  cpu time    0.11: real time    0.11
    --------------------------------------------
      LOOP:  cpu time    2.44: real time    2.45

 eigenvalue-minimisations  :    42
 total energy-change (2. order) :-0.1065196E+00  (-0.3364194E-03)
 number of electron      11.0000036 magnetization       3.0165450
 augmentation part        0.6623944 magnetization       0.1623618

 Broyden mixing:
  rms(total) = 0.82629E+00    rms(broyden)= 0.82627E+00
  rms(prec ) = 0.10008E+01
  weight for this iteration     100.00

 eigenvalues of (default mixing * dielectric matrix)
  average eigenvalue GAMMA=   0.8316
  3.2283  1.8557  1.8557  0.8679  0.8679  0.7565  0.7565  0.6883  0.6883  0.5825
  0.5825  0.4393  0.4393  0.3298  0.3298  0.6376  0.6376  0.5404  0.4155  0.1330

 Free energy of the ion-electron system (eV)
  ---------------------------------------------------
  alpha Z        PSCENC =         0.45022818
  Ewald energy   TEWEN  =       -88.19225366
  -1/2 Hartree   DENC   =      -511.46519008
  -exchange  EXHF       =         0.00000000
  -V(xc)+E(xc)   XCENC  =        44.25264602
  PAW double counting   =       567.67228689     -570.65510400
  entropy T*S    EENTRO =        -0.23925770
  eigenvalues    EBANDS =      -141.32193490
  atomic energy  EATOM  =       696.73819845
  ---------------------------------------------------
  free energy    TOTEN  =        -2.76038079 eV

  energy without entropy =       -2.52112309  energy(sigma->0) =       -2.64075194


--------------------------------------------------------------------------------------------------------




----------------------------------------- Iteration    1(  26)  ---------------------------------------


    POTLOK:  cpu time    1.67: real time    1.67
    SETDIJ:  cpu time    0.02: real time    0.02
    EDDIAG:  cpu time    0.10: real time    0.10
  RMM-DIIS:  cpu time    0.44: real time    0.45
    ORTHCH:  cpu time    0.01: real time    0.01
       DOS:  cpu time    0.00: real time    0.00
    CHARGE:  cpu time    0.11: real time    0.11
    MIXING:  cpu time    0.11: real time    0.11
    --------------------------------------------
      LOOP:  cpu time    2.46: real time    2.46

 eigenvalue-minimisations  :    43
 total energy-change (2. order) :-0.1128218E+01  (-0.2778771E-01)
 number of electron      11.0000030 magnetization       3.4124482
 augmentation part        0.6792429 magnetization       0.5545757

 Broyden mixing:
  rms(total) = 0.59611E+00    rms(broyden)= 0.59548E+00
  rms(prec ) = 0.90048E+00
  weight for this iteration     100.00

 eigenvalues of (default mixing * dielectric matrix)
  average eigenvalue GAMMA=   0.8244
  3.3806  1.7424  1.7424  0.7602  0.7602  0.8511  0.8511  0.7731  0.7731  0.6338
  0.5697  0.5697  0.3298  0.3298  0.4395  0.4395  0.6389  0.6389  0.5404  0.4154
  0.1330

 Free energy of the ion-electron system (eV)
  ---------------------------------------------------
  alpha Z        PSCENC =         0.45022818
  Ewald energy   TEWEN  =       -88.19225366
  -1/2 Hartree   DENC   =      -511.36776261
  -exchange  EXHF       =         0.00000000
  -V(xc)+E(xc)   XCENC  =        44.81727796
  PAW double counting   =       569.66656086     -572.60680294
  entropy T*S    EENTRO =        -0.23394684
  eigenvalues    EBANDS =      -143.16009828
  atomic energy  EATOM  =       696.73819845
  ---------------------------------------------------
  free energy    TOTEN  =        -3.88859887 eV

  energy without entropy =       -3.65465204  energy(sigma->0) =       -3.77162546


--------------------------------------------------------------------------------------------------------




----------------------------------------- Iteration    1(  27)  ---------------------------------------


    POTLOK:  cpu time    1.66: real time    1.67
    SETDIJ:  cpu time    0.02: real time    0.02
    EDDIAG:  cpu time    0.10: real time    0.10
  RMM-DIIS:  cpu time    0.48: real time    0.48
    ORTHCH:  cpu time    0.00: real time    0.01
       DOS:  cpu time    0.00: real time    0.00
    CHARGE:  cpu time    0.11: real time    0.11
    MIXING:  cpu time    0.12: real time    0.12
    --------------------------------------------
      LOOP:  cpu time    2.50: real time    2.50

 eigenvalue-minimisations  :    47
 total energy-change (2. order) :-0.2950799E+00  (-0.7070227E-02)
 number of electron      11.0000028 magnetization       3.5033168
 augmentation part        0.6902380 magnetization       0.7665774

 Broyden mixing:
  rms(total) = 0.65082E+00    rms(broyden)= 0.65053E+00
  rms(prec ) = 0.10084E+01
  weight for this iteration     100.00

 eigenvalues of (default mixing * dielectric matrix)
  average eigenvalue GAMMA=   0.8712
  3.3904  1.8864  1.8864  1.3819  0.9327  0.9327  0.7659  0.7659  0.6400  0.6400
  0.5404  0.4155  0.3298  0.3298  0.7612  0.7612  0.4394  0.4394  0.6280  0.5835
  0.5835  0.1330

 Free energy of the ion-electron system (eV)
  ---------------------------------------------------
  alpha Z        PSCENC =         0.45022818
  Ewald energy   TEWEN  =       -88.19225366
  -1/2 Hartree   DENC   =      -511.14458220
  -exchange  EXHF       =         0.00000000
  -V(xc)+E(xc)   XCENC  =        45.01720387
  PAW double counting   =       569.39517594     -572.31810285
  entropy T*S    EENTRO =        -0.21167909
  eigenvalues    EBANDS =      -143.91786742
  atomic energy  EATOM  =       696.73819845
  ---------------------------------------------------
  free energy    TOTEN  =        -4.18367877 eV

  energy without entropy =       -3.97199968  energy(sigma->0) =       -4.07783922


--------------------------------------------------------------------------------------------------------




----------------------------------------- Iteration    1(  28)  ---------------------------------------


    POTLOK:  cpu time    1.67: real time    1.67
    SETDIJ:  cpu time    0.02: real time    0.02
    EDDIAG:  cpu time    0.10: real time    0.10
  RMM-DIIS:  cpu time    0.48: real time    0.48
    ORTHCH:  cpu time    0.01: real time    0.01
       DOS:  cpu time    0.00: real time    0.00
    CHARGE:  cpu time    0.11: real time    0.11
    MIXING:  cpu time    0.12: real time    0.12
    --------------------------------------------
      LOOP:  cpu time    2.51: real time    2.51

 eigenvalue-minimisations  :    47
 total energy-change (2. order) :-0.7878644E-01  (-0.1897780E-02)
 number of electron      11.0000026 magnetization       3.5225394
 augmentation part        0.6982304 magnetization       0.9033579

 Broyden mixing:
  rms(total) = 0.71774E+00    rms(broyden)= 0.71744E+00
  rms(prec ) = 0.11114E+01
  weight for this iteration     100.00

 eigenvalues of (default mixing * dielectric matrix)
  average eigenvalue GAMMA=   0.8801
  3.4647  2.1987  2.1987  0.7655  0.7655  0.6398  0.6398  0.5404  0.4155  0.9423
  0.9423  1.1117  0.3298  0.3298  0.7750  0.7750  0.4394  0.4394  0.6287  0.6287
  0.5698  0.5698  0.1330

 Free energy of the ion-electron system (eV)
  ---------------------------------------------------
  alpha Z        PSCENC =         0.45022818
  Ewald energy   TEWEN  =       -88.19225366
  -1/2 Hartree   DENC   =      -510.89857134
  -exchange  EXHF       =         0.00000000
  -V(xc)+E(xc)   XCENC  =        45.04043481
  PAW double counting   =       568.63177414     -571.54420646
  entropy T*S    EENTRO =        -0.19073125
  eigenvalues    EBANDS =      -144.29733808
  atomic energy  EATOM  =       696.73819845
  ---------------------------------------------------
  free energy    TOTEN  =        -4.26246521 eV

  energy without entropy =       -4.07173395  energy(sigma->0) =       -4.16709958


--------------------------------------------------------------------------------------------------------




----------------------------------------- Iteration    1(  29)  ---------------------------------------


    POTLOK:  cpu time    1.67: real time    1.67
    SETDIJ:  cpu time    0.01: real time    0.02
    EDDIAG:  cpu time    0.11: real time    0.10
  RMM-DIIS:  cpu time    0.50: real time    0.51
    ORTHCH:  cpu time    0.01: real time    0.01
       DOS:  cpu time    0.00: real time    0.00
    CHARGE:  cpu time    0.11: real time    0.11
    MIXING:  cpu time    0.14: real time    0.13
    --------------------------------------------
      LOOP:  cpu time    2.54: real time    2.54

 eigenvalue-minimisations  :    49
 total energy-change (2. order) :-0.2513957E-01  (-0.2533375E-03)
 number of electron      11.0000026 magnetization       3.5286014
 augmentation part        0.7004015 magnetization       0.9321103

 Broyden mixing:
  rms(total) = 0.73642E+00    rms(broyden)= 0.73638E+00
  rms(prec ) = 0.11378E+01
  weight for this iteration     100.00

 eigenvalues of (default mixing * dielectric matrix)
  average eigenvalue GAMMA=   0.8508
  3.4556  2.1213  2.1213  0.7661  0.7661  1.1187  0.9350  0.9350  0.6400  0.6400
  0.5404  0.4155  0.8176  0.8176  0.3298  0.3298  0.4394  0.4394  0.6538  0.6538
  0.5781  0.5781  0.1330  0.1943

 Free energy of the ion-electron system (eV)
  ---------------------------------------------------
  alpha Z        PSCENC =         0.45022818
  Ewald energy   TEWEN  =       -88.19225366
  -1/2 Hartree   DENC   =      -510.84022151
  -exchange  EXHF       =         0.00000000
  -V(xc)+E(xc)   XCENC  =        45.04385765
  PAW double counting   =       568.47762680     -571.38819492
  entropy T*S    EENTRO =        -0.18909463
  eigenvalues    EBANDS =      -144.38775114
  atomic energy  EATOM  =       696.73819845
  ---------------------------------------------------
  free energy    TOTEN  =        -4.28760478 eV

  energy without entropy =       -4.09851015  energy(sigma->0) =       -4.19305746


--------------------------------------------------------------------------------------------------------




----------------------------------------- Iteration    1(  30)  ---------------------------------------


    POTLOK:  cpu time    1.66: real time    1.67
    SETDIJ:  cpu time    0.02: real time    0.02
    EDDIAG:  cpu time    0.10: real time    0.10
  RMM-DIIS:  cpu time    0.48: real time    0.48
    ORTHCH:  cpu time    0.00: real time    0.01
       DOS:  cpu time    0.00: real time    0.00
    CHARGE:  cpu time    0.11: real time    0.11
    MIXING:  cpu time    0.14: real time    0.14
    --------------------------------------------
      LOOP:  cpu time    2.52: real time    2.52

 eigenvalue-minimisations  :    46
 total energy-change (2. order) : 0.2942213E-01  (-0.1136145E-03)
 number of electron      11.0000026 magnetization       3.5489748
 augmentation part        0.6986874 magnetization       0.9205751

 Broyden mixing:
  rms(total) = 0.72143E+00    rms(broyden)= 0.72141E+00
  rms(prec ) = 0.11105E+01
  weight for this iteration     100.00

 eigenvalues of (default mixing * dielectric matrix)
  average eigenvalue GAMMA=   0.8356
  3.4565  2.1403  2.1403  1.1267  0.9371  0.9371  0.7650  0.7650  0.6398  0.6398
  0.5404  0.4155  0.8179  0.8179  0.3298  0.3298  0.4394  0.4394  0.6558  0.6558
  0.5796  0.5796  0.1330  0.3043  0.3043

 Free energy of the ion-electron system (eV)
  ---------------------------------------------------
  alpha Z        PSCENC =         0.45022818
  Ewald energy   TEWEN  =       -88.19225366
  -1/2 Hartree   DENC   =      -510.86650666
[...]
  free energy    TOTEN  =        -4.73807230 eV

  energy without entropy =       -4.55319579  energy(sigma->0) =       -4.64563405


--------------------------------------------------------------------------------------------------------




----------------------------------------- Iteration    1(  56)  ---------------------------------------


    POTLOK:  cpu time    1.68: real time    1.67
    SETDIJ:  cpu time    0.01: real time    0.02
    EDDIAG:  cpu time    0.10: real time    0.10
  RMM-DIIS:  cpu time    0.47: real time    0.47
    ORTHCH:  cpu time    0.00: real time    0.01
       DOS:  cpu time    0.00: real time    0.00
    CHARGE:  cpu time    0.11: real time    0.11
    MIXING:  cpu time    0.28: real time    0.28
    --------------------------------------------
      LOOP:  cpu time    2.66: real time    2.66

 eigenvalue-minimisations  :    45
 total energy-change (2. order) :-0.2875875E-01  (-0.2508344E-02)
 number of electron      11.0000035 magnetization       4.9082195
 augmentation part        0.6482424 magnetization       0.8019810

 Broyden mixing:
  rms(total) = 0.96461E-01    rms(broyden)= 0.95925E-01
  rms(prec ) = 0.12936E+00
  weight for this iteration     100.00

 eigenvalues of (default mixing * dielectric matrix)
  average eigenvalue GAMMA=   1.6566
 17.9952  4.5262  4.5262  3.5168  3.5168  3.1102  3.1102  2.4536  0.9277  1.8032
  1.8032  0.5257  0.8343  0.8343  0.9478  0.9478  1.2495  0.1284  1.1082  1.1082
  0.6257  0.6257  0.0501  0.9488  0.9488  0.2394  0.8066  0.8066  0.5791  0.5791
  0.3851  0.6920  0.6920  0.7326  0.5558  0.5558  0.6383  0.6383  0.6341  0.6341
  0.5784

 Free energy of the ion-electron system (eV)
  ---------------------------------------------------
  alpha Z        PSCENC =         0.45022818
  Ewald energy   TEWEN  =       -88.19225366
  -1/2 Hartree   DENC   =      -512.55665639
  -exchange  EXHF       =         0.00000000
  -V(xc)+E(xc)   XCENC  =        45.76642942
  PAW double counting   =       575.78513208     -578.66321026
  entropy T*S    EENTRO =        -0.17194259
  eigenvalues    EBANDS =      -143.92275628
  atomic energy  EATOM  =       696.73819845
  ---------------------------------------------------
  free energy    TOTEN  =        -4.76683106 eV

  energy without entropy =       -4.59488846  energy(sigma->0) =       -4.68085976


--------------------------------------------------------------------------------------------------------




----------------------------------------- Iteration    1(  57)  ---------------------------------------


    POTLOK:  cpu time    1.67: real time    1.67
    SETDIJ:  cpu time    0.01: real time    0.02
    EDDIAG:  cpu time    0.10: real time    0.10
  RMM-DIIS:  cpu time    0.46: real time    0.46
    ORTHCH:  cpu time    0.00: real time    0.01
       DOS:  cpu time    0.00: real time    0.00
    CHARGE:  cpu time    0.11: real time    0.11
    MIXING:  cpu time    0.29: real time    0.29
    --------------------------------------------
      LOOP:  cpu time    2.66: real time    2.66

 eigenvalue-minimisations  :    44
 total energy-change (2. order) : 0.1003743E-01  (-0.1557649E-02)
 number of electron      11.0000038 magnetization       4.9395906
 augmentation part        0.6462588 magnetization       0.7633591

 Broyden mixing:
  rms(total) = 0.86705E-01    rms(broyden)= 0.78907E-01
  rms(prec ) = 0.97004E-01
  weight for this iteration     100.00

 eigenvalues of (default mixing * dielectric matrix)
  average eigenvalue GAMMA=   1.6301
 17.9845  3.4262  3.4262  3.9640  3.9640  3.8047  3.8047  1.3268  2.4737  0.9959
  0.9959  0.4571  1.3836  1.3836  0.9494  0.9494  1.3343  1.3343  0.1221  0.7612
  0.7612  0.0641  0.9548  0.9548  0.3889  0.3889  0.2537  0.4734  0.4734  0.7913
  0.7913  0.8463  0.8463  0.7159  0.7159  0.5433  0.5433  0.6353  0.6353  0.6427
  0.6236  0.5792

 Free energy of the ion-electron system (eV)
  ---------------------------------------------------
  alpha Z        PSCENC =         0.45022818
  Ewald energy   TEWEN  =       -88.19225366
  -1/2 Hartree   DENC   =      -512.46044976
  -exchange  EXHF       =         0.00000000
  -V(xc)+E(xc)   XCENC  =        45.82558548
  PAW double counting   =       575.45944043     -578.33207800
  entropy T*S    EENTRO =        -0.16099293
  eigenvalues    EBANDS =      -144.08447181
  atomic energy  EATOM  =       696.73819845
  ---------------------------------------------------
  free energy    TOTEN  =        -4.75679363 eV

  energy without entropy =       -4.59580070  energy(sigma->0) =       -4.67629716


--------------------------------------------------------------------------------------------------------




----------------------------------------- Iteration    1(  58)  ---------------------------------------


    POTLOK:  cpu time    1.67: real time    1.67
    SETDIJ:  cpu time    0.02: real time    0.02
    EDDIAG:  cpu time    0.10: real time    0.10
  RMM-DIIS:  cpu time    0.46: real time    0.46
    ORTHCH:  cpu time    0.01: real time    0.01
       DOS:  cpu time    0.00: real time    0.00
    CHARGE:  cpu time    0.11: real time    0.11
    MIXING:  cpu time    0.30: real time    0.30
    --------------------------------------------
      LOOP:  cpu time    2.67: real time    2.67

 eigenvalue-minimisations  :    44
 total energy-change (2. order) :-0.2930588E-01  (-0.2818006E-03)
 number of electron      11.0000037 magnetization       4.9800228
 augmentation part        0.6461041 magnetization       0.7997679

 Broyden mixing:
  rms(total) = 0.54855E-01    rms(broyden)= 0.54693E-01
  rms(prec ) = 0.73694E-01
  weight for this iteration     100.00

 eigenvalues of (default mixing * dielectric matrix)
  average eigenvalue GAMMA=   1.6133
 18.0040  3.4983  3.4983  3.9016  3.9016  3.7029  3.7029  1.3553  2.5828  1.0781
  1.0781  1.7619  0.4492  1.3242  1.3242  0.7471  0.7471  0.1194  0.9401  0.9401
  1.1144  1.1144  0.0585  0.4334  0.4334  0.9341  0.9341  0.8523  0.8523  0.2942
  0.2942  0.5354  0.5354  0.6614  0.6614  0.7429  0.5610  0.5610  0.6368  0.6368
  0.6569  0.6228  0.5871

 Free energy of the ion-electron system (eV)
  ---------------------------------------------------
  alpha Z        PSCENC =         0.45022818
  Ewald energy   TEWEN  =       -88.19225366
  -1/2 Hartree   DENC   =      -512.46986446
  -exchange  EXHF       =         0.00000000
  -V(xc)+E(xc)   XCENC  =        45.82355997
  PAW double counting   =       575.27559495     -578.14613622
  entropy T*S    EENTRO =        -0.16105105
  eigenvalues    EBANDS =      -144.10437567
  atomic energy  EATOM  =       696.73819845
  ---------------------------------------------------
  free energy    TOTEN  =        -4.78609951 eV

  energy without entropy =       -4.62504846  energy(sigma->0) =       -4.70557399


--------------------------------------------------------------------------------------------------------




----------------------------------------- Iteration    1(  59)  ---------------------------------------


    POTLOK:  cpu time    1.67: real time    1.67
    SETDIJ:  cpu time    0.02: real time    0.02
    EDDIAG:  cpu time    0.10: real time    0.10
  RMM-DIIS:  cpu time    0.44: real time    0.44
    ORTHCH:  cpu time    0.00: real time    0.01
       DOS:  cpu time    0.00: real time    0.00
    CHARGE:  cpu time    0.11: real time    0.11
    MIXING:  cpu time    0.32: real time    0.31
    --------------------------------------------
      LOOP:  cpu time    2.66: real time    2.66

 eigenvalue-minimisations  :    42
 total energy-change (2. order) :-0.4200635E-02  (-0.1318331E-03)
 number of electron      11.0000037 magnetization       5.0552670
 augmentation part        0.6458441 magnetization       0.8637990

 Broyden mixing:
  rms(total) = 0.40404E-01    rms(broyden)= 0.40356E-01
  rms(prec ) = 0.58328E-01
  weight for this iteration     100.00

 eigenvalues of (default mixing * dielectric matrix)
  average eigenvalue GAMMA=   1.6050
 18.5181  3.8877  3.8877  3.8991  3.8991  2.8857  2.8857  2.5724  1.3367  1.1765
  1.1765  1.5539  1.5539  1.0365  1.0365  0.4482  1.5138  1.0332  1.0332  0.1081
  1.0449  1.0449  0.0601  0.8398  0.8398  0.4386  0.4386  0.2424  0.8582  0.8582
  0.5991  0.5991  0.6745  0.6745  0.4831  0.4831  0.7017  0.6605  0.6605  0.6560
  0.5535  0.5535  0.6230  0.5882

 Free energy of the ion-electron system (eV)
  ---------------------------------------------------
  alpha Z        PSCENC =         0.45022818
  Ewald energy   TEWEN  =       -88.19225366
  -1/2 Hartree   DENC   =      -512.47177270
  -exchange  EXHF       =         0.00000000
  -V(xc)+E(xc)   XCENC  =        45.84839100
  PAW double counting   =       575.09938960     -577.96883550
  entropy T*S    EENTRO =        -0.15822285
  eigenvalues    EBANDS =      -144.13542267
  atomic energy  EATOM  =       696.73819845
  ---------------------------------------------------
  free energy    TOTEN  =        -4.79030014 eV

  energy without entropy =       -4.63207729  energy(sigma->0) =       -4.71118872


--------------------------------------------------------------------------------------------------------




----------------------------------------- Iteration    1(  60)  ---------------------------------------


    POTLOK:  cpu time    1.67: real time    1.67
    SETDIJ:  cpu time    0.02: real time    0.02
    EDDIAG:  cpu time    0.10: real time    0.10
  RMM-DIIS:  cpu time    0.45: real time    0.45
    ORTHCH:  cpu time    0.00: real time    0.01
       DOS:  cpu time    0.00: real time    0.00
    --------------------------------------------
      LOOP:  cpu time    2.24: real time    2.24

 eigenvalue-minimisations  :    43
 total energy-change (2. order) :-0.4418812E-03  (-0.1277879E-03)
 number of electron      11.0000037 magnetization       5.0552670
 augmentation part        0.6458441 magnetization       0.8637990

 Free energy of the ion-electron system (eV)
  ---------------------------------------------------
  alpha Z        PSCENC =         0.45022818
  Ewald energy   TEWEN  =       -88.19225366
  -1/2 Hartree   DENC   =      -512.46277825
  -exchange  EXHF       =         0.00000000
  -V(xc)+E(xc)   XCENC  =        45.89961168
  PAW double counting   =       574.99688270     -577.86271241
  entropy T*S    EENTRO =        -0.15579805
  eigenvalues    EBANDS =      -144.20212066
  atomic energy  EATOM  =       696.73819845
  ---------------------------------------------------
  free energy    TOTEN  =        -4.79074203 eV

  energy without entropy =       -4.63494398  energy(sigma->0) =       -4.71284300


--------------------------------------------------------------------------------------------------------




 average (electrostatic) potential at core
  the test charge radii are     0.7089  0.7215
  (the norm of the test charge is              1.0000)
       1 -74.6745       2 -83.4178
 
 
 
 E-fermi :  -7.3994     XC(G=0):  -0.7046     alpha+bet : -0.1481


 spin component 1

 k-point   1 :       0.0000    0.0000    0.0000
  band No.  band energies     occupation 
      1     -25.4677      1.00000
      2     -19.4544      1.00000
      3     -10.4754      1.00000
      4     -10.4573      1.00000
      5     -10.4501      1.00000
      6      -7.8703      0.99957
      7      -7.8695      0.99956
      8      -7.8035      0.99786
      9      -0.4696      0.00000
     10       0.8579      0.00000

 spin component 2

 k-point   1 :       0.0000    0.0000    0.0000
  band No.  band energies     occupation 
      1     -22.1261      1.00000
      2     -14.8903      1.00000
      3      -7.3420      0.34229
      4      -7.3407      0.33885
      5      -7.3340      0.32187
      6      -3.7307      0.00000
      7      -3.7302      0.00000
      8      -3.6573      0.00000
      9      -0.2507      0.00000
     10       0.9848      0.00000


--------------------------------------------------------------------------------------------------------


 soft charge-density along one line, spin component           1
         0         1         2         3         4         5         6         7         8         9
 total charge-density along one line
 
 soft charge-density along one line, spin component           2
         0         1         2         3         4         5         6         7         8         9
 total charge-density along one line
 
 pseudopotential strength for first ion, spin component:           1
 14.494  17.416  -0.000  -0.000   0.000  -0.000  -0.000   0.000
 17.416  20.930  -0.000  -0.000   0.000  -0.000  -0.000   0.000
 -0.000  -0.000  -7.730   0.000   0.000 -10.797   0.000   0.000
 -0.000  -0.000   0.000  -7.728  -0.000   0.000 -10.794  -0.000
  0.000   0.000   0.000  -0.000  -7.730   0.000  -0.000 -10.797
 -0.000  -0.000 -10.797   0.000   0.000 -14.445   0.000   0.000
 -0.000  -0.000   0.000 -10.794  -0.000   0.000 -14.441  -0.000
  0.000   0.000   0.000  -0.000 -10.797   0.000  -0.000 -14.446
 pseudopotential strength for first ion, spin component:           2
 13.333  15.996  -0.000  -0.000   0.000  -0.000  -0.000   0.000
 15.996  19.194  -0.000  -0.000   0.000  -0.000  -0.000   0.000
 -0.000  -0.000  -7.232  -0.000   0.000 -10.015  -0.000   0.000
 -0.000  -0.000  -0.000  -7.231  -0.000  -0.000 -10.014  -0.000
  0.000   0.000   0.000  -0.000  -7.232   0.000  -0.000 -10.015
 -0.000  -0.000 -10.015  -0.000   0.000 -13.216  -0.000   0.000
 -0.000  -0.000  -0.000 -10.014  -0.000  -0.000 -13.214  -0.000
  0.000   0.000   0.000  -0.000 -10.015   0.000  -0.000 -13.216
 total augmentation occupancy for first ion, spin component:           1
  2.720  -0.345   0.000   0.004   0.000   0.000  -0.002   0.000
 -0.345   0.053   0.000  -0.002   0.000   0.000   0.001   0.000
  0.000   0.000   0.948   0.000   0.000   0.027   0.000   0.000
  0.004  -0.002   0.000   0.947   0.000   0.000   0.027   0.000
  0.000   0.000   0.000   0.000   0.947   0.000   0.000   0.028
  0.000   0.000   0.027   0.000   0.000   0.001   0.000   0.000
 -0.002   0.001   0.000   0.027   0.000   0.000   0.001   0.000
  0.000   0.000   0.000   0.000   0.028   0.000   0.000   0.001
 total augmentation occupancy for first ion, spin component:           2
 -0.294   0.173   0.000  -0.004   0.000   0.000   0.001   0.000
  0.173  -0.037   0.000   0.003   0.000   0.000   0.000   0.000
  0.000   0.000   0.948   0.000   0.000   0.027   0.000   0.000
 -0.004   0.003   0.000   0.936   0.000   0.000   0.029   0.000
  0.000   0.000   0.000   0.000   0.946   0.000   0.000   0.028
  0.000   0.000   0.027   0.000   0.000   0.001   0.000   0.000
  0.001   0.000   0.000   0.029   0.000   0.000   0.001   0.000
  0.000   0.000   0.000   0.000   0.028   0.000   0.000   0.001


------------------------ aborting loop because EDIFF is reached ----------------------------------------


    CHARGE:  cpu time    0.11: real time    0.11
    FORLOC:  cpu time    0.06: real time    0.05
    FORNL :  cpu time    0.11: real time    0.11
    STRESS:  cpu time    0.36: real time    0.36
    FORCOR:  cpu time    1.73: real time    1.73
    FORHAR:  cpu time    0.18: real time    0.18
    MIXING:  cpu time    0.29: real time    0.30

  FORCE on cell =-STRESS in cart. coord.  units (eV):
  Direction    XX          YY          ZZ          XY          YZ          ZX
  --------------------------------------------------------------------------------------
  Alpha Z     0.45023     0.45023     0.45023
  Ewald     -78.64780   -83.08008    73.53560    -0.00000     0.00000     0.00000
  Hartree   128.41618   124.34032   260.58646    -0.00000    -0.00000    -0.00000
  E(xc)     -49.41116   -49.40802   -49.36178     0.00000    -0.00000     0.00000
  Local    -198.09564  -190.01722  -482.92665     0.00000    -0.00000    -0.00000
  n-local   -27.31283   -27.42379   -27.49655     0.00000    -0.00000     0.00000
  augment     6.45299     6.50304     6.52257     0.00000    -0.00000     0.00000
  Kinetic   217.00208   217.45078   217.70308    -0.00000     0.00000    -0.00000
  Fock        0.00000     0.00000     0.00000     0.00000     0.00000     0.00000
  -------------------------------------------------------------------------------------
  Total      -1.14595    -1.18474    -0.98703     0.00000     0.00000     0.00000
  in kB      -1.68085    -1.73775    -1.44775     0.00000     0.00000     0.00000
  external pressure =       -1.62 kB  Pullay stress =        0.00 kB


 VOLUME and BASIS-vectors are now :
 -----------------------------------------------------------------------------
  energy-cutoff  :      400.00
  volume of cell :     1092.32
      direct lattice vectors                 reciprocal lattice vectors
    10.100000000  0.000000000  0.000000000     0.099009901  0.000000000  0.000000000
     0.000000000 10.300000000  0.000000000     0.000000000  0.097087379  0.000000000
     0.000000000  0.000000000 10.500000000     0.000000000  0.000000000  0.095238095

  length of vectors
    10.100000000 10.300000000 10.500000000     0.099009901  0.097087379  0.095238095


 FORCES acting on ions
    electron-ion (+dipol)            ewald-force                    non-local-force                 convergence-correction
 -----------------------------------------------------------------------------------------------
   0.225E-14 0.130E-13 0.425E+02   -.175E-16 -.359E-16 -.422E+02   0.000E+00 0.000E+00 -.429E-01   0.208E-10 -.214E-11 -.256E+00
   0.361E-14 -.109E-13 -.420E+02   0.895E-16 0.394E-16 0.422E+02   0.000E+00 0.000E+00 0.167E+00   -.192E-11 0.642E-12 -.321E+00
 -----------------------------------------------------------------------------------------------
   0.586E-14 0.215E-14 0.462E+00   0.720E-16 0.346E-17 0.000E+00   0.000E+00 0.000E+00 0.124E+00   0.189E-10 -.150E-11 -.577E+00
 
 
 POSITION                                       TOTAL-FORCE (eV/Angst)
 -----------------------------------------------------------------------------------
      0.00000      0.00000      0.00000         0.000000      0.000000     -0.065752
      0.00000      0.00000      3.00000         0.000000      0.000000      0.065752
 -----------------------------------------------------------------------------------
    total drift:                                0.000000     -0.000000      0.008623


--------------------------------------------------------------------------------------------------------



  FREE ENERGIE OF THE ION-ELECTRON SYSTEM (eV)
  ---------------------------------------------------
  free  energy   TOTEN  =        -4.79074203 eV

  energy  without entropy=       -4.63494398  energy(sigma->0) =       -4.71284300
 


--------------------------------------------------------------------------------------------------------


    POTLOK:  cpu time    1.69: real time    1.69


--------------------------------------------------------------------------------------------------------


     LOOP+:  cpu time  148.12: real time  148.23
    4ORBIT:  cpu time    0.00: real time    0.00

 total amount of memory used by VASP on root node   175530. kBytes
========================================================================

   base      :      30000. kBytes
   nonl-proj :       3171. kBytes
   fftplans  :      37440. kBytes
   grid      :      98560. kBytes
   one-center:         12. kBytes
   wavefun   :       6347. kBytes
 
  
  
 General timing and accounting informations for this job:
 ========================================================
  
                  Total CPU time used (sec):      149.648
                            User time (sec):      149.036
                          System time (sec):        0.612
                         Elapsed time (sec):      149.756
  
                   Maximum memory used (kb):      376560.
                   Average memory used (kb):           0.
  
                          Minor page faults:       166886
                          Major page faults:            0
                 Voluntary context switches:           15
