 vasp.5.3.3 18Dez12 (build Sep  7 2015 22:32:56) complex                        
  
 executed on             LinuxIFC date 2002.02.18  05:53:32
 running on    1 total cores
 distrk:  each k-point on    1 cores,    1 groups
 distr:  one band on NCORES_PER_BAND=   1 cores,    1 groups


--------------------------------------------------------------------------------------------------------


 INCAR:
 POTCAR:    PAW_PBE N 08Apr2002                   
 POTCAR:    PAW_PBE O 08Apr2002                   
 POTCAR:    PAW_PBE N 08Apr2002                   
   VRHFIN =N: s2p3                                                              
   LEXCH  = PE                                                                  
   EATOM  =   264.5486 eV,   19.4438 Ry                                         
                                                                                
   TITEL  = PAW_PBE N 08Apr2002                                                 
   LULTRA =        F    use ultrasoft PP ?                                      
   IUNSCR =        1    unscreen: 0-lin 1-nonlin 2-no                           
   RPACOR =    1.200    partial core radius                                     
   POMASS =   14.001; ZVAL   =    5.000    mass and valenz                      
   RCORE  =    1.500    outmost cutoff radius                                   
   RWIGS  =    1.400; RWIGS  =    0.741    wigner-seitz radius (au A)           
   ENMAX  =  400.000; ENMIN  =  300.000 eV                                      
   ICORE  =        2    local potential                                         
   LCOR   =        T    correct aug charges                                     
   LPAW   =        T    paw PP                                                  
   EAUG   =  627.112                                                            
   DEXC   =    0.000                                                            
   RMAX   =    1.529    core radius for proj-oper                               
   RAUG   =    1.300    factor for augmentation sphere                          
   RDEP   =    1.514    radius for radial grids                                 
   RDEPT  =    1.338    core radius for aug-charge                              
                                                                                
   Atomic configuration                                                         
    4 entries                                                                   
     n  l   j            E        occ.                                          
     1  0  0.50      -384.7179   2.0000                                         
     2  0  0.50       -18.5828   2.0000                                         
     2  1  0.50        -7.0898   3.0000                                         
     3  2  1.50        -6.8029   0.0000                                         
   Description                                                                  
     l       E           TYP  RCUT    TYP  RCUT                                 
     0    -18.5828119     23  1.200                                             
     0    -13.5018863     23  1.200                                             
     1     -7.0897853     23  1.500                                             
     1      9.5240782     23  1.500                                             
     2     -6.8029130      7  1.500                                             
  local pseudopotential read in
  partial core-charges read in
  partial kinetic energy density read in
  atomic valenz-charges read in
  non local Contribution for L=           0  read in
    real space projection operators read in
  non local Contribution for L=           0  read in
    real space projection operators read in
  non local Contribution for L=           1  read in
    real space projection operators read in
  non local Contribution for L=           1  read in
    real space projection operators read in
    PAW grid and wavefunctions read in
 
   number of l-projection  operators is LMAX  =           4
   number of lm-projection operators is LMMAX =           8
 
 POTCAR:    PAW_PBE O 08Apr2002                   
   VRHFIN =O: s2p4                                                              
   LEXCH  = PE                                                                  
   EATOM  =   432.3788 eV,   31.7789 Ry                                         
                                                                                
   TITEL  = PAW_PBE O 08Apr2002                                                 
   LULTRA =        F    use ultrasoft PP ?                                      
   IUNSCR =        1    unscreen: 0-lin 1-nonlin 2-no                           
   RPACOR =    1.200    partial core radius                                     
   POMASS =   16.000; ZVAL   =    6.000    mass and valenz                      
   RCORE  =    1.520    outmost cutoff radius                                   
   RWIGS  =    1.550; RWIGS  =    0.820    wigner-seitz radius (au A)           
   ENMAX  =  400.000; ENMIN  =  300.000 eV                                      
   ICORE  =        2    local potential                                         
   LCOR   =        T    correct aug charges                                     
   LPAW   =        T    paw PP                                                  
   EAUG   =  605.392                                                            
   DEXC   =    0.000                                                            
   RMAX   =    1.553    core radius for proj-oper                               
   RAUG   =    1.300    factor for augmentation sphere                          
   RDEP   =    1.550    radius for radial grids                                 
   RDEPT  =    1.329    core radius for aug-charge                              
                                                                                
   Atomic configuration                                                         
    4 entries                                                                   
     n  l   j            E        occ.                                          
     1  0  0.50      -514.6923   2.0000                                         
     2  0  0.50       -23.9615   2.0000                                         
     2  1  0.50        -9.0305   4.0000                                         
     3  2  1.50        -9.5241   0.0000                                         
   Description                                                                  
     l       E           TYP  RCUT    TYP  RCUT                                 
     0    -23.9615318     23  1.200                                             
     0     -9.5240782     23  1.200                                             
     1     -9.0304911     23  1.520                                             
     1      8.1634956     23  1.520                                             
     2     -9.5240782      7  1.500                                             
  local pseudopotential read in
  partial core-charges read in
  partial kinetic energy density read in
  kinetic energy density of atom read in
  atomic valenz-charges read in
  non local Contribution for L=           0  read in
    real space projection operators read in
  non local Contribution for L=           0  read in
    real space projection operators read in
  non local Contribution for L=           1  read in
    real space projection operators read in
  non local Contribution for L=           1  read in
    real space projection operators read in
    PAW grid and wavefunctions read in
 
   number of l-projection  operators is LMAX  =           4
   number of lm-projection operators is LMMAX =           8
 
  PAW_PBE N 08Apr2002                   :
 energy of atom  1       EATOM= -264.5486
 kinetic energy error for atom=    0.0736 (will be added to EATOM!!)
  PAW_PBE O 08Apr2002                   :
 energy of atom  2       EATOM= -432.3788
 kinetic energy error for atom=    0.1156 (will be added to EATOM!!)
 
 
 POSCAR: CO molecule in a box                    
  positions in cartesian coordinates
  No initial velocities read in
 exchange correlation table for  LEXCH =        8
   RHO(1)=    0.500       N(1)  =     2000
   RHO(2)=  100.500       N(2)  =     4000
 


--------------------------------------------------------------------------------------------------------


 ion  position               nearest neighbor table
   1  0.000  0.000  0.000-
   2  0.000  0.000  0.181-
 
  LATTYP: Found a simple orthorhombic cell.
 ALAT       =    10.1000000000
 B/A-ratio  =     1.0198019802
 C/A-ratio  =     1.0396039604
  
  Lattice vectors:
  
 A1 = (  10.1000000000,   0.0000000000,   0.0000000000)
 A2 = (   0.0000000000,  10.3000000000,   0.0000000000)
 A3 = (   0.0000000000,   0.0000000000,  10.5000000000)


Analysis of symmetry for initial positions (statically):
=====================================================================
 Subroutine PRICEL returns:
 Original cell was already a primitive cell.
 

 Routine SETGRP: Setting up the symmetry group for a 
 simple orthorhombic supercell.


 Subroutine GETGRP returns: Found  4 space group operations
 (whereof  4 operations were pure point group operations)
 out of a pool of  8 trial point group operations.


The static configuration has the point symmetry C_2v.


Analysis of symmetry for dynamics (positions and initial velocities):
=====================================================================
 Subroutine PRICEL returns:
 Original cell was already a primitive cell.
 

 Routine SETGRP: Setting up the symmetry group for a 
 simple orthorhombic supercell.


 Subroutine GETGRP returns: Found  4 space group operations
 (whereof  4 operations were pure point group operations)
 out of a pool of  8 trial point group operations.


The dynamic configuration has the point symmetry C_2v.


Analysis of constrained symmetry for selective dynamics:
=====================================================================
 Subroutine PRICEL returns:
 Original cell was already a primitive cell.
 

 Routine SETGRP: Setting up the symmetry group for a 
 simple orthorhombic supercell.


 Subroutine GETGRP returns: Found  4 space group operations
 (whereof  4 operations were pure point group operations)
 out of a pool of  8 trial point group operations.


The constrained configuration has the point symmetry C_2v.


Analysis of magnetic symmetry:
=====================================================================

 Subroutine MAGSYM returns: Found  4 space group operations
 (whereof  4 operations were pure point group operations)
 out of a pool of  4 trial space group operations
 (whereof  4 operations were pure point group operations)
 and found also     1 'primitive' translations


The magnetic configuration has the point symmetry C_2v.


 irot  :   1
 --------------------------------------------------------------------
 isymop:   1   0   0
           0   1   0
           0   0   1

 gtrans:     0.0000000     0.0000000     0.0000000

 ptrans:     0.0000000     0.0000000     0.0000000
 rotmap:
 (   1->   1)  (   2->   2) 


 irot  :   2
 --------------------------------------------------------------------
 isymop:  -1   0   0
           0  -1   0
           0   0   1

 gtrans:     0.0000000     0.0000000     0.0000000

 ptrans:     0.0000000     0.0000000     0.0000000
 rotmap:
 (   1->   1)  (   2->   2) 


 irot  :   3
 --------------------------------------------------------------------
 isymop:   1   0   0
           0  -1   0
           0   0   1

 gtrans:     0.0000000     0.0000000     0.0000000

 ptrans:     0.0000000     0.0000000     0.0000000
 rotmap:
 (   1->   1)  (   2->   2) 


 irot  :   4
 --------------------------------------------------------------------
 isymop:  -1   0   0
           0   1   0
           0   0   1

 gtrans:     0.0000000     0.0000000     0.0000000

 ptrans:     0.0000000     0.0000000     0.0000000
 rotmap:
 (   1->   1)  (   2->   2) 
 
 
 KPOINTS: Gamma-point only                        

Automatic generation of k-mesh.
Space group operators:
 irot       det(A)        alpha          n_x          n_y          n_z        tau_x        tau_y        tau_z
    1     1.000000     0.000000     1.000000     0.000000     0.000000     0.000000     0.000000     0.000000
    2     1.000000   180.000000     0.000000     0.000000     1.000000     0.000000     0.000000     0.000000
    3    -1.000000   180.000000     0.000000     1.000000     0.000000     0.000000     0.000000     0.000000
    4    -1.000000   180.000000     1.000000     0.000000     0.000000     0.000000     0.000000     0.000000
 
 Subroutine IBZKPT returns following result:
 ===========================================
 
 Found      1 irreducible k-points:
 
 Following reciprocal coordinates:
            Coordinates               Weight
  0.000000  0.000000  0.000000      1.000000
 
 Following cartesian coordinates:
            Coordinates               Weight
  0.000000  0.000000  0.000000      1.000000
 


--------------------------------------------------------------------------------------------------------




 Dimension of arrays:
   k-points           NKPTS =      1   k-points in BZ     NKDIM =      1   number of bands    NBANDS=     10
   number of dos      NEDOS =    301   number of ions     NIONS =      2
   non local maximal  LDIM  =      4   non local SUM 2l+1 LMDIM =      8
   total plane-waves  NPLWV = 135000
   max r-space proj   IRMAX =      1   max aug-charges    IRDMAX=   1803
   dimension x,y,z NGX =    50 NGY =   50 NGZ =   54
   dimension x,y,z NGXF=   100 NGYF=  100 NGZF=  108
   support grid    NGXF=   100 NGYF=  100 NGZF=  108
   ions per type =               1   1
 NGX,Y,Z   is equivalent  to a cutoff of   8.23,  8.07,  8.55 a.u.
 NGXF,Y,Z  is equivalent  to a cutoff of  16.46, 16.14, 17.10 a.u.


 I would recommend the setting:
   dimension x,y,z NGX =    49 NGY =   50 NGZ =   51
 SYSTEM =  Hello World                             
 POSCAR =  CO molecule in a box                    

 Startparameter for this run:
   NWRITE =      2    write-flag & timer
   PREC   = normal    normal or accurate (medium, high low for compatibility)
   ISTART =      0    job   : 0-new  1-cont  2-samecut
   ICHARG =      2    charge: 1-file 2-atom 10-const
   ISPIN  =      2    spin polarized calculation?
   LNONCOLLINEAR =      F non collinear calculations
   LSORBIT =      F    spin-orbit coupling
   INIWAV =      1    electr: 0-lowe 1-rand  2-diag
   LASPH  =      F    aspherical Exc in radial PAW
   METAGGA=      F    non-selfconsistent MetaGGA calc.

 Electronic Relaxation 1
   ENCUT  =  400.0 eV  29.40 Ry    5.42 a.u.  16.47 16.80 17.12*2*pi/ulx,y,z
   ENINI  =  400.0     initial cutoff
   ENAUG  =  627.1 eV  augmentation charge cutoff
   NELM   =     60;   NELMIN=  2; NELMDL=  0     # of ELM steps 
   EDIFF  = 0.1E-03   stopping-criterion for ELM
   LREAL  =      F    real-space projection
   NLSPLINE    = F    spline interpolate recip. space projectors
   LCOMPAT=      F    compatible to vasp.4.4
   GGA_COMPAT  = T    GGA compatible to vasp.4.4-vasp.4.6
   LMAXPAW     = -100 max onsite density
   LMAXMIX     =    2 max onsite mixed and CHGCAR
   VOSKOWN=      0    Vosko Wilk Nusair interpolation
   ROPT   =    0.00000   0.00000
 Ionic relaxation
   EDIFFG = -.1E-01   stopping-criterion for IOM
   NSW    =      0    number of steps for IOM
   NBLOCK =      1;   KBLOCK =      1    inner block; outer block 
   IBRION =     -1    ionic relax: 0-MD 1-quasi-New 2-CG
   NFREE  =      0    steps in history (QN), initial steepest desc. (CG)
   ISIF   =      2    stress and relaxation
   IWAVPR =     10    prediction:  0-non 1-charg 2-wave 3-comb
   ISYM   =      2    0-nonsym 1-usesym 2-fastsym
   LCORR  =      T    Harris-Foulkes like correction to forces

   POTIM  = 0.5000    time-step for ionic-motion
   TEIN   =    0.0    initial temperature
   TEBEG  =    0.0;   TEEND  =   0.0 temperature during run
   SMASS  =  -3.00    Nose mass-parameter (am)
   estimated Nose-frequenzy (Omega)   =  0.10E-29 period in steps =****** mass=  -0.233E-26a.u.
   SCALEE = 1.0000    scale energy and forces
   NPACO  =    256;   APACO  = 16.0  distance and # of slots for P.C.
   PSTRESS=    0.0 pullay stress

  Mass of Ions in am
   POMASS =  14.00 16.00
  Ionic Valenz
   ZVAL   =   5.00  6.00
  Atomic Wigner-Seitz radii
   RWIGS  =  -1.00 -1.00
  virtual crystal weights 
   VCA    =   1.00  1.00
   NELECT =      11.0000    total number of electrons
   NUPDOWN=      -1.0000    fix difference up-down

 DOS related values:
   EMIN   =  10.00;   EMAX   =-10.00  energy-range for DOS
   EFERMI =   0.00
   ISMEAR =     0;   SIGMA  =   0.20  broadening in eV -4-tet -1-fermi 0-gaus

 Electronic relaxation 2 (details)
   IALGO  =     68    algorithm
   LDIAG  =      T    sub-space diagonalisation (order eigenvalues)
   LSUBROT=      T    optimize rotation matrix (better conditioning)
   TURBO    =      0    0=normal 1=particle mesh
   IRESTART =      0    0=no restart 2=restart with 2 vectors
   NREBOOT  =      0    no. of reboots
   NMIN     =      0    reboot dimension
   EREF     =   0.00    reference energy to select bands
   IMIX   =      4    mixing-type and parameters
     AMIX     =   0.40;   BMIX     =  1.00
     AMIX_MAG =   1.60;   BMIX_MAG =  1.00
     AMIN     =   0.10
     WC   =   100.;   INIMIX=   1;  MIXPRE=   1;  MAXMIX= -45

 Intra band minimization:
   WEIMIN = 0.0000     energy-eigenvalue tresh-hold
   EBREAK =  0.25E-05  absolut break condition
   DEPER  =   0.30     relativ break condition  

   TIME   =   0.40     timestep for ELM

  volume/ion in A,a.u.               =     546.16      3685.65
  Fermi-wavevector in a.u.,A,eV,Ry     =   0.353527  0.668070  1.700478  0.124982
  Thomas-Fermi vector in A             =   1.267843
 
 Write flags
   LWAVE  =      F    write WAVECAR
   LCHARG =      F    write CHGCAR
   LVTOT  =      F    write LOCPOT, total local potential
   LVHAR  =      F    write LOCPOT, Hartree potential only
   LELF   =      F    write electronic localiz. function (ELF)
   LORBIT =      0    0 simple, 1 ext, 2 COOP (PROOUT)


 Dipole corrections
   LMONO  =      F    monopole corrections only (constant potential shift)
   LDIPOL =      F    correct potential (dipole corrections)
   IDIPOL =      0    1-x, 2-y, 3-z, 4-all directions 
   EPSILON=  1.0000000 bulk dielectric constant

 Exchange correlation treatment:
   GGA     =    --    GGA type
   LEXCH   =     8    internal setting for exchange type
   VOSKOWN=      0    Vosko Wilk Nusair interpolation
   LHFCALC =     F    Hartree Fock is set to
   LHFONE  =     F    Hartree Fock one center treatment
   AEXX    =    0.0000 exact exchange contribution

 Linear response parameters
   LEPSILON=     F    determine dielectric tensor
   LRPA    =     F    only Hartree local field effects (RPA)
   LNABLA  =     F    use nabla operator in PAW spheres
   LVEL    =     F    velocity operator in full k-point grid
   LINTERFAST=   F  fast interpolation
   KINTER  =     0    interpolate to denser k-point grid
   CSHIFT  =0.1000    complex shift for real part using Kramers Kronig
   OMEGAMAX=  -1.0    maximum frequency
   DEG_THRESHOLD= 0.2000000E-02 threshold for treating states as degnerate
   RTIME   =    0.100 relaxation time in fs

 Orbital magnetization related:
   ORBITALMAG=     F  switch on orbital magnetization
   LCHIMAG   =     F  perturbation theory with respect to B field
   DQ        =  0.001000  dq finite difference perturbation B field



--------------------------------------------------------------------------------------------------------


 Static calculation
 charge density and potential will be updated during run
 spin polarized calculation
 RMM-DIIS sequential band-by-band and
  variant of blocked Davidson during initial phase
 perform sub-space diagonalisation
    before iterative eigenvector-optimisation
 modified Broyden-mixing scheme, WC =      100.0
 initial mixing is a Kerker type mixing with AMIX =  0.4000 and BMIX =      1.0000
 Hartree-type preconditioning will be used
 using additional bands            4
 reciprocal scheme for non local part
 use partial core corrections
 calculate Harris-corrections to forces 
   (improved forces if not selfconsistent)
 use gradient corrections 
 use of overlap-Matrix (Vanderbilt PP)
 Gauss-broadening in eV      SIGMA  =   0.20


--------------------------------------------------------------------------------------------------------


  energy-cutoff  :      400.00
  volume of cell :     1092.32
      direct lattice vectors                 reciprocal lattice vectors
    10.100000000  0.000000000  0.000000000     0.099009901  0.000000000  0.000000000
     0.000000000 10.300000000  0.000000000     0.000000000  0.097087379  0.000000000
     0.000000000  0.000000000 10.500000000     0.000000000  0.000000000  0.095238095

  length of vectors
    10.100000000 10.300000000 10.500000000     0.099009901  0.097087379  0.095238095


 
 k-points in units of 2pi/SCALE and weight: Gamma-point only                        
   0.00000000  0.00000000  0.00000000       1.000
 
 k-points in reciprocal lattice and weights: Gamma-point only                        
   0.00000000  0.00000000  0.00000000       1.000
 
 position of ions in fractional coordinates (direct lattice) 
   0.00000000  0.00000000  0.00000000
   0.00000000  0.00000000  0.18095238
 
 position of ions in cartesian coordinates  (Angst):
   0.00000000  0.00000000  0.00000000
   0.00000000  0.00000000  1.90000000
 


--------------------------------------------------------------------------------------------------------


 k-point  1 :   0.0000 0.0000 0.0000  plane waves:   19819

 maximum and minimum number of plane-waves per node :     19819    19819

 maximum number of plane-waves:     19819
 maximum index in each direction: 
   IXMAX=   16   IYMAX=   16   IZMAX=   17
   IXMIN=  -16   IYMIN=  -16   IZMIN=  -17

 WARNING: aliasing errors must be expected set NGX to  66 to avoid them
 WARNING: aliasing errors must be expected set NGY to  66 to avoid them
 WARNING: aliasing errors must be expected set NGZ to  70 to avoid them
 aliasing errors are usually negligible using standard VASP settings
 and one can safely disregard these warnings

 serial   3D FFT for wavefunctions
 parallel 3D FFT for charge:
    minimum data exchange during FFTs selected (reduces bandwidth)


 total amount of memory used by VASP on root node   175530. kBytes
========================================================================

   base      :      30000. kBytes
   nonl-proj :       3171. kBytes
   fftplans  :      37440. kBytes
   grid      :      98560. kBytes
   one-center:         12. kBytes
   wavefun   :       6347. kBytes
 
 Broyden mixing: mesh for mixing (old mesh)
   NGX = 33   NGY = 33   NGZ = 35
  (NGX  =100   NGY  =100   NGZ  =108)
  gives a total of  38115 points

 initial charge density was supplied:
 charge density of overlapping atoms calculated
 number of electron      11.0000000 magnetization       2.0000000
 keeping initial charge density in first step


--------------------------------------------------------------------------------------------------------


 Maximum index for augmentation-charges         1520 (set IRDMAX)


--------------------------------------------------------------------------------------------------------


 First call to EWALD:  gamma=   0.172
 Maximum number of real-space cells 3x 3x 3
 Maximum number of reciprocal cells 3x 3x 3

 FEWALD executed in parallel
    FEWALD:  cpu time    0.00: real time    0.00


----------------------------------------- Iteration    1(   1)  ---------------------------------------


    POTLOK:  cpu time    1.66: real time    1.67
    SETDIJ:  cpu time    0.02: real time    0.02
     EDDAV:  cpu time    0.64: real time    0.64
       DOS:  cpu time    0.00: real time    0.00
    --------------------------------------------
      LOOP:  cpu time    2.32: real time    2.32

 eigenvalue-minimisations  :    56
 total energy-change (2. order) : 0.6511251E+02  (-0.1950145E+03)
 number of electron      11.0000000 magnetization       2.0000000
 augmentation part       11.0000000 magnetization       2.0000000

 Free energy of the ion-electron system (eV)
  ---------------------------------------------------
  alpha Z        PSCENC =         0.45022818
  Ewald energy   TEWEN  =        -9.67907987
  -1/2 Hartree   DENC   =      -585.65098176
  -exchange  EXHF       =         0.00000000
  -V(xc)+E(xc)   XCENC  =        44.40084388
  PAW double counting   =       551.20228741     -554.18101748
  entropy T*S    EENTRO =        -0.05792347
  eigenvalues    EBANDS =       -78.11004049
  atomic energy  EATOM  =       696.73819845
  ---------------------------------------------------
  free energy    TOTEN  =        65.11251484 eV

  energy without entropy =       65.17043831  energy(sigma->0) =       65.14147658


--------------------------------------------------------------------------------------------------------




----------------------------------------- Iteration    1(   2)  ---------------------------------------


     EDDAV:  cpu time    0.80: real time    0.80
       DOS:  cpu time    0.00: real time    0.00
    --------------------------------------------
      LOOP:  cpu time    0.80: real time    0.80

 eigenvalue-minimisations  :    76
 total energy-change (2. order) :-0.5958528E+02  (-0.5918377E+02)
 number of electron      11.0000000 magnetization       2.0000000
 augmentation part       11.0000000 magnetization       2.0000000

 Free energy of the ion-electron system (eV)
  ---------------------------------------------------
  alpha Z        PSCENC =         0.45022818
  Ewald energy   TEWEN  =        -9.67907987
  -1/2 Hartree   DENC   =      -585.65098176
  -exchange  EXHF       =         0.00000000
  -V(xc)+E(xc)   XCENC  =        44.40084388
  PAW double counting   =       551.20228741     -554.18101748
  entropy T*S    EENTRO =        -0.00000143
  eigenvalues    EBANDS =      -137.75323886
  atomic energy  EATOM  =       696.73819845
  ---------------------------------------------------
  free energy    TOTEN  =         5.52723852 eV

  energy without entropy =        5.52723994  energy(sigma->0) =        5.52723923


--------------------------------------------------------------------------------------------------------




----------------------------------------- Iteration    1(   3)  ---------------------------------------


     EDDAV:  cpu time    0.76: real time    0.76
       DOS:  cpu time    0.00: real time    0.00
    --------------------------------------------
      LOOP:  cpu time    0.76: real time    0.76

 eigenvalue-minimisations  :    72
 total energy-change (2. order) :-0.1191152E+02  (-0.1179794E+02)
 number of electron      11.0000000 magnetization       2.0000000
 augmentation part       11.0000000 magnetization       2.0000000

 Free energy of the ion-electron system (eV)
  ---------------------------------------------------
  alpha Z        PSCENC =         0.45022818
  Ewald energy   TEWEN  =        -9.67907987
  -1/2 Hartree   DENC   =      -585.65098176
  -exchange  EXHF       =         0.00000000
  -V(xc)+E(xc)   XCENC  =        44.40084388
  PAW double counting   =       551.20228741     -554.18101748
  entropy T*S    EENTRO =        -0.10737973
  eigenvalues    EBANDS =      -149.55738529
  atomic energy  EATOM  =       696.73819845
  ---------------------------------------------------
  free energy    TOTEN  =        -6.38428622 eV

  energy without entropy =       -6.27690649  energy(sigma->0) =       -6.33059635


--------------------------------------------------------------------------------------------------------




----------------------------------------- Iteration    1(   4)  ---------------------------------------


     EDDAV:  cpu time    0.65: real time    0.65
       DOS:  cpu time    0.00: real time    0.00
    --------------------------------------------
      LOOP:  cpu time    0.65: real time    0.65

 eigenvalue-minimisations  :    60
 total energy-change (2. order) :-0.2156188E+00  (-0.2102323E+00)
 number of electron      11.0000000 magnetization       2.0000000
 augmentation part       11.0000000 magnetization       2.0000000

 Free energy of the ion-electron system (eV)
  ---------------------------------------------------
  alpha Z        PSCENC =         0.45022818
  Ewald energy   TEWEN  =        -9.67907987
  -1/2 Hartree   DENC   =      -585.65098176
  -exchange  EXHF       =         0.00000000
  -V(xc)+E(xc)   XCENC  =        44.40084388
  PAW double counting   =       551.20228741     -554.18101748
  entropy T*S    EENTRO =        -0.11283747
  eigenvalues    EBANDS =      -149.76754631
  atomic energy  EATOM  =       696.73819845
  ---------------------------------------------------
  free energy    TOTEN  =        -6.59990498 eV

  energy without entropy =       -6.48706751  energy(sigma->0) =       -6.54348624


--------------------------------------------------------------------------------------------------------




----------------------------------------- Iteration    1(   5)  ---------------------------------------


     EDDAV:  cpu time    0.69: real time    0.69
       DOS:  cpu time    0.00: real time    0.00
    CHARGE:  cpu time    0.11: real time    0.11
    MIXING:  cpu time    0.03: real time    0.03
    --------------------------------------------
      LOOP:  cpu time    0.82: real time    0.82

 eigenvalue-minimisations  :    64
 total energy-change (2. order) :-0.7575051E-03  (-0.7573268E-03)
 number of electron      11.0000001 magnetization       1.5781328
 augmentation part        0.6774236 magnetization       0.7330635

 Broyden mixing:
  rms(total) = 0.10157E+01    rms(broyden)= 0.10140E+01
  rms(prec ) = 0.13933E+01
  weight for this iteration     100.00

 Free energy of the ion-electron system (eV)
  ---------------------------------------------------
  alpha Z        PSCENC =         0.45022818
  Ewald energy   TEWEN  =        -9.67907987
  -1/2 Hartree   DENC   =      -585.65098176
  -exchange  EXHF       =         0.00000000
  -V(xc)+E(xc)   XCENC  =        44.40084388
  PAW double counting   =       551.20228741     -554.18101748
  entropy T*S    EENTRO =        -0.11283775
  eigenvalues    EBANDS =      -149.76830354
  atomic energy  EATOM  =       696.73819845
  ---------------------------------------------------
  free energy    TOTEN  =        -6.60066248 eV

  energy without entropy =       -6.48782474  energy(sigma->0) =       -6.54424361


--------------------------------------------------------------------------------------------------------




----------------------------------------- Iteration    1(   6)  ---------------------------------------


    POTLOK:  cpu time    1.66: real time    1.66
    SETDIJ:  cpu time    0.02: real time    0.02
    EDDIAG:  cpu time    0.10: real time    0.10
  RMM-DIIS:  cpu time    0.48: real time    0.48
    ORTHCH:  cpu time    0.01: real time    0.01
       DOS:  cpu time    0.00: real time    0.00
    CHARGE:  cpu time    0.11: real time    0.11
    MIXING:  cpu time    0.03: real time    0.03
    --------------------------------------------
      LOOP:  cpu time    2.41: real time    2.41

 eigenvalue-minimisations  :    46
 total energy-change (2. order) :-0.7094225E+01  (-0.9512006E+00)
 number of electron      11.0000007 magnetization       1.5153129
 augmentation part        0.4172844 magnetization       0.7126268

 Broyden mixing:
  rms(total) = 0.26961E+01    rms(broyden)= 0.26942E+01
  rms(prec ) = 0.38876E+01
  weight for this iteration     100.00

 eigenvalues of (default mixing * dielectric matrix)
  average eigenvalue GAMMA=   0.2970
  0.2970

 Free energy of the ion-electron system (eV)
  ---------------------------------------------------
  alpha Z        PSCENC =         0.45022818
  Ewald energy   TEWEN  =        -9.67907987
  -1/2 Hartree   DENC   =      -594.12339736
  -exchange  EXHF       =         0.00000000
  -V(xc)+E(xc)   XCENC  =        46.15159718
  PAW double counting   =       580.34125671     -583.40322216
  entropy T*S    EENTRO =        -0.11306271
  eigenvalues    EBANDS =      -150.05740596
  atomic energy  EATOM  =       696.73819845
  ---------------------------------------------------
  free energy    TOTEN  =       -13.69488753 eV

  energy without entropy =      -13.58182482  energy(sigma->0) =      -13.63835618


--------------------------------------------------------------------------------------------------------




----------------------------------------- Iteration    1(   7)  ---------------------------------------


    POTLOK:  cpu time    1.66: real time    1.66
    SETDIJ:  cpu time    0.01: real time    0.02
    EDDIAG:  cpu time    0.10: real time    0.10
  RMM-DIIS:  cpu time    0.48: real time    0.47
    ORTHCH:  cpu time    0.01: real time    0.01
       DOS:  cpu time    0.00: real time    0.00
    CHARGE:  cpu time    0.11: real time    0.11
    MIXING:  cpu time    0.03: real time    0.03
    --------------------------------------------
      LOOP:  cpu time    2.40: real time    2.40

 eigenvalue-minimisations  :    46
 total energy-change (2. order) : 0.8848514E+01  (-0.3107505E+00)
 number of electron      11.0000002 magnetization       1.3620627
 augmentation part        0.5817686 magnetization       0.4935229

 Broyden mixing:
  rms(total) = 0.30500E+00    rms(broyden)= 0.29682E+00
  rms(prec ) = 0.30960E+00
  weight for this iteration     100.00

 eigenvalues of (default mixing * dielectric matrix)
  average eigenvalue GAMMA=   0.4550
  0.6796  0.2305

 Free energy of the ion-electron system (eV)
  ---------------------------------------------------
  alpha Z        PSCENC =         0.45022818
  Ewald energy   TEWEN  =        -9.67907987
  -1/2 Hartree   DENC   =      -587.43126689
  -exchange  EXHF       =         0.00000000
  -V(xc)+E(xc)   XCENC  =        45.18772110
  PAW double counting   =       568.55090599     -571.50817768
  entropy T*S    EENTRO =        -0.11288957
  eigenvalues    EBANDS =      -147.04201302
  atomic energy  EATOM  =       696.73819845
  ---------------------------------------------------
  free energy    TOTEN  =        -4.84637331 eV

  energy without entropy =       -4.73348373  energy(sigma->0) =       -4.78992852


--------------------------------------------------------------------------------------------------------




----------------------------------------- Iteration    1(   8)  ---------------------------------------


    POTLOK:  cpu time    1.66: real time    1.66
    SETDIJ:  cpu time    0.02: real time    0.02
    EDDIAG:  cpu time    0.10: real time    0.10
  RMM-DIIS:  cpu time    0.48: real time    0.48
    ORTHCH:  cpu time    0.01: real time    0.01
       DOS:  cpu time    0.00: real time    0.00
    CHARGE:  cpu time    0.11: real time    0.11
    MIXING:  cpu time    0.03: real time    0.03
    --------------------------------------------
      LOOP:  cpu time    2.41: real time    2.42

 eigenvalue-minimisations  :    47
 total energy-change (2. order) :-0.4561129E+00  (-0.2128820E-01)
 number of electron      11.0000002 magnetization       1.1379194
 augmentation part        0.6028258 magnetization       0.2435300

 Broyden mixing:
  rms(total) = 0.30931E+00    rms(broyden)= 0.30791E+00
  rms(prec ) = 0.34666E+00
  weight for this iteration     100.00

 eigenvalues of (default mixing * dielectric matrix)
  average eigenvalue GAMMA=   0.7860
  0.2664  1.0458  1.0458

 Free energy of the ion-electron system (eV)
  ---------------------------------------------------
  alpha Z        PSCENC =         0.45022818
  Ewald energy   TEWEN  =        -9.67907987
  -1/2 Hartree   DENC   =      -586.60572172
  -exchange  EXHF       =         0.00000000
  -V(xc)+E(xc)   XCENC  =        44.96201199
  PAW double counting   =       571.00290433     -573.90257396
  entropy T*S    EENTRO =        -0.11282952
  eigenvalues    EBANDS =      -148.15562405
  atomic energy  EATOM  =       696.73819845
  ---------------------------------------------------
  free energy    TOTEN  =        -5.30248616 eV

  energy without entropy =       -5.18965665  energy(sigma->0) =       -5.24607140


--------------------------------------------------------------------------------------------------------




----------------------------------------- Iteration    1(   9)  ---------------------------------------


    POTLOK:  cpu time    1.67: real time    1.66
    SETDIJ:  cpu time    0.01: real time    0.02
    EDDIAG:  cpu time    0.10: real time    0.10
  RMM-DIIS:  cpu time    0.51: real time    0.51
    ORTHCH:  cpu time    0.01: real time    0.01
       DOS:  cpu time    0.00: real time    0.00
    CHARGE:  cpu time    0.10: real time    0.11
    MIXING:  cpu time    0.04: real time    0.04
    --------------------------------------------
      LOOP:  cpu time    2.44: real time    2.44

 eigenvalue-minimisations  :    49
 total energy-change (2. order) :-0.4293173E+00  (-0.2948416E-01)
 number of electron      11.0000001 magnetization       1.1517933
 augmentation part        0.6004956 magnetization       0.2137611

 Broyden mixing:
  rms(total) = 0.24785E+00    rms(broyden)= 0.24644E+00
  rms(prec ) = 0.24941E+00
  weight for this iteration     100.00

 eigenvalues of (default mixing * dielectric matrix)
  average eigenvalue GAMMA=   0.8267
  1.1915  0.8914  0.2628  0.9611

 Free energy of the ion-electron system (eV)
  ---------------------------------------------------
  alpha Z        PSCENC =         0.45022818
  Ewald energy   TEWEN  =        -9.67907987
  -1/2 Hartree   DENC   =      -587.21868418
  -exchange  EXHF       =         0.00000000
  -V(xc)+E(xc)   XCENC  =        45.10607098
  PAW double counting   =       576.77894962     -579.61514725
  entropy T*S    EENTRO =        -0.11276074
  eigenvalues    EBANDS =      -148.17957868
  atomic energy  EATOM  =       696.73819845
  ---------------------------------------------------
  free energy    TOTEN  =        -5.73180348 eV

  energy without entropy =       -5.61904275  energy(sigma->0) =       -5.67542312


--------------------------------------------------------------------------------------------------------




----------------------------------------- Iteration    1(  10)  ---------------------------------------


    POTLOK:  cpu time    1.66: real time    1.66
    SETDIJ:  cpu time    0.02: real time    0.02
    EDDIAG:  cpu time    0.10: real time    0.11
  RMM-DIIS:  cpu time    0.49: real time    0.49
    ORTHCH:  cpu time    0.00: real time    0.01
       DOS:  cpu time    0.00: real time    0.00
    CHARGE:  cpu time    0.11: real time    0.11
    MIXING:  cpu time    0.04: real time    0.04
    --------------------------------------------
      LOOP:  cpu time    2.42: real time    2.43

 eigenvalue-minimisations  :    47
 total energy-change (2. order) : 0.2853557E-01  (-0.1300119E-02)
 number of electron      11.0000001 magnetization       1.0543757
 augmentation part        0.5944054 magnetization       0.1274222

 Broyden mixing:
  rms(total) = 0.28957E+00    rms(broyden)= 0.28953E+00
  rms(prec ) = 0.29746E+00
  weight for this iteration     100.00

 eigenvalues of (default mixing * dielectric matrix)
  average eigenvalue GAMMA=   1.0976
  1.7547  1.7547  0.2621  1.0507  0.6656

 Free energy of the ion-electron system (eV)
  ---------------------------------------------------
  alpha Z        PSCENC =         0.45022818
  Ewald energy   TEWEN  =        -9.67907987
  -1/2 Hartree   DENC   =      -587.02947714
  -exchange  EXHF       =         0.00000000
  -V(xc)+E(xc)   XCENC  =        44.98654154
  PAW double counting   =       576.36514932     -579.20950180
  entropy T*S    EENTRO =        -0.11282564
  eigenvalues    EBANDS =      -148.21250096
  atomic energy  EATOM  =       696.73819845
  ---------------------------------------------------
  free energy    TOTEN  =        -5.70326792 eV

  energy without entropy =       -5.59044228  energy(sigma->0) =       -5.64685510


--------------------------------------------------------------------------------------------------------




----------------------------------------- Iteration    1(  11)  ---------------------------------------


    POTLOK:  cpu time    1.66: real time    1.66
    SETDIJ:  cpu time    0.02: real time    0.02
    EDDIAG:  cpu time    0.10: real time    0.10
  RMM-DIIS:  cpu time    0.48: real time    0.48
    ORTHCH:  cpu time    0.01: real time    0.01
       DOS:  cpu time    0.00: real time    0.00
    CHARGE:  cpu time    0.11: real time    0.11
    MIXING:  cpu time    0.05: real time    0.04
    --------------------------------------------
      LOOP:  cpu time    2.43: real time    2.43

 eigenvalue-minimisations  :    45
 total energy-change (2. order) :-0.4488974E+00  (-0.1673313E-01)
 number of electron      10.9999996 magnetization       1.0542108
 augmentation part        0.6072610 magnetization       0.0808686

 Broyden mixing:
  rms(total) = 0.14494E+00    rms(broyden)= 0.13942E+00
  rms(prec ) = 0.15155E+00
  weight for this iteration     100.00

 eigenvalues of (default mixing * dielectric matrix)
  average eigenvalue GAMMA=   0.9873
  1.8098  1.8098  1.0627  0.6982  0.2624  0.2808

 Free energy of the ion-electron system (eV)
  ---------------------------------------------------
  alpha Z        PSCENC =         0.45022818
  Ewald energy   TEWEN  =        -9.67907987
  -1/2 Hartree   DENC   =      -589.16211868
  -exchange  EXHF       =         0.00000000
  -V(xc)+E(xc)   XCENC  =        45.50588853
  PAW double counting   =       581.79394482     -584.61836786
  entropy T*S    EENTRO =        -0.10291842
  eigenvalues    EBANDS =      -147.07794045
  atomic energy  EATOM  =       696.73819845
  ---------------------------------------------------
  free energy    TOTEN  =        -6.15216529 eV

  energy without entropy =       -6.04924687  energy(sigma->0) =       -6.10070608


--------------------------------------------------------------------------------------------------------




----------------------------------------- Iteration    1(  12)  ---------------------------------------


    POTLOK:  cpu time    1.70: real time    1.70
    SETDIJ:  cpu time    0.02: real time    0.02
    EDDIAG:  cpu time    0.10: real time    0.10
  RMM-DIIS:  cpu time    0.52: real time    0.52
    ORTHCH:  cpu time    0.01: real time    0.01
       DOS:  cpu time    0.00: real time    0.00
    CHARGE:  cpu time    0.10: real time    0.11
    MIXING:  cpu time    0.04: real time    0.05
    --------------------------------------------
      LOOP:  cpu time    2.50: real time    2.51

 eigenvalue-minimisations  :    51
 total energy-change (2. order) :-0.2048947E-01  (-0.1098178E-02)
 number of electron      10.9999994 magnetization       1.0409467
 augmentation part        0.6059919 magnetization       0.0683820

 Broyden mixing:
  rms(total) = 0.18228E+00    rms(broyden)= 0.18097E+00
  rms(prec ) = 0.19599E+00
  weight for this iteration     100.00

 eigenvalues of (default mixing * dielectric matrix)
  average eigenvalue GAMMA=   0.9709
  1.8845  1.8845  1.0105  0.2621  0.7533  0.5443  0.4572

 Free energy of the ion-electron system (eV)
  ---------------------------------------------------
  alpha Z        PSCENC =         0.45022818
  Ewald energy   TEWEN  =        -9.67907987
  -1/2 Hartree   DENC   =      -589.10263442
  -exchange  EXHF       =         0.00000000
  -V(xc)+E(xc)   XCENC  =        45.47128033
  PAW double counting   =       581.73186164     -584.55567878
  entropy T*S    EENTRO =        -0.09384734
  eigenvalues    EBANDS =      -147.13298295
  atomic energy  EATOM  =       696.73819845
  ---------------------------------------------------
  free energy    TOTEN  =        -6.17265476 eV

  energy without entropy =       -6.07880742  energy(sigma->0) =       -6.12573109


--------------------------------------------------------------------------------------------------------




----------------------------------------- Iteration    1(  13)  ---------------------------------------


    POTLOK:  cpu time    1.66: real time    1.66
    SETDIJ:  cpu time    0.02: real time    0.02
    EDDIAG:  cpu time    0.10: real time    0.10
  RMM-DIIS:  cpu time    0.48: real time    0.48
    ORTHCH:  cpu time    0.01: real time    0.01
       DOS:  cpu time    0.00: real time    0.00
    CHARGE:  cpu time    0.11: real time    0.11
    MIXING:  cpu time    0.05: real time    0.05
    --------------------------------------------
      LOOP:  cpu time    2.42: real time    2.42

 eigenvalue-minimisations  :    46
 total energy-change (2. order) :-0.1151320E-01  (-0.1798597E-02)
 number of electron      11.0000001 magnetization       1.0145955
 augmentation part        0.6062990 magnetization       0.0403528

 Broyden mixing:
  rms(total) = 0.69157E-01    rms(broyden)= 0.55622E-01
  rms(prec ) = 0.67722E-01
  weight for this iteration     100.00
  WARNING: grid for Broyden might be to small

 eigenvalues of (default mixing * dielectric matrix)
  average eigenvalue GAMMA=   1.0453
  2.0392  2.0392  0.2621  1.1960  1.0080  0.6526  0.6526  0.5126

 Free energy of the ion-electron system (eV)
  ---------------------------------------------------
  alpha Z        PSCENC =         0.45022818
  Ewald energy   TEWEN  =        -9.67907987
  -1/2 Hartree   DENC   =      -589.30483913
  -exchange  EXHF       =         0.00000000
  -V(xc)+E(xc)   XCENC  =        45.50623043
  PAW double counting   =       582.17145537     -584.98369405
  entropy T*S    EENTRO =        -0.11256063
  eigenvalues    EBANDS =      -146.97010671
  atomic energy  EATOM  =       696.73819845
  ---------------------------------------------------
  free energy    TOTEN  =        -6.18416796 eV

  energy without entropy =       -6.07160734  energy(sigma->0) =       -6.12788765


--------------------------------------------------------------------------------------------------------




----------------------------------------- Iteration    1(  14)  ---------------------------------------


    POTLOK:  cpu time    1.66: real time    1.66
    SETDIJ:  cpu time    0.01: real time    0.02
    EDDIAG:  cpu time    0.10: real time    0.10
  RMM-DIIS:  cpu time    0.50: real time    0.50
    ORTHCH:  cpu time    0.01: real time    0.01
       DOS:  cpu time    0.00: real time    0.00
    CHARGE:  cpu time    0.11: real time    0.11
    MIXING:  cpu time    0.05: real time    0.05
    --------------------------------------------
      LOOP:  cpu time    2.44: real time    2.45

 eigenvalue-minimisations  :    48
 total energy-change (2. order) :-0.2090613E+00  (-0.2022069E-02)
 number of electron      11.0000001 magnetization       1.0136925
 augmentation part        0.6092834 magnetization       0.0351842

 Broyden mixing:
  rms(total) = 0.32984E-01    rms(broyden)= 0.30562E-01
  rms(prec ) = 0.38634E-01
  weight for this iteration     100.00

 eigenvalues of (default mixing * dielectric matrix)
  average eigenvalue GAMMA=   1.0452
  2.0517  2.0517  1.4052  0.2621  0.9052  0.9052  0.6550  0.6550  0.5158

 Free energy of the ion-electron system (eV)
  ---------------------------------------------------
  alpha Z        PSCENC =         0.45022818
  Ewald energy   TEWEN  =        -9.67907987
  -1/2 Hartree   DENC   =      -589.11858737
  -exchange  EXHF       =         0.00000000
  -V(xc)+E(xc)   XCENC  =        45.38497122
  PAW double counting   =       582.40400680     -585.20670635
  entropy T*S    EENTRO =        -0.11277834
  eigenvalues    EBANDS =      -147.25348194
  atomic energy  EATOM  =       696.73819845
  ---------------------------------------------------
  free energy    TOTEN  =        -6.39322923 eV

  energy without entropy =       -6.28045089  energy(sigma->0) =       -6.33684006


--------------------------------------------------------------------------------------------------------




----------------------------------------- Iteration    1(  15)  ---------------------------------------


    POTLOK:  cpu time    1.66: real time    1.66
    SETDIJ:  cpu time    0.02: real time    0.02
    EDDIAG:  cpu time    0.10: real time    0.11
  RMM-DIIS:  cpu time    0.48: real time    0.49
    ORTHCH:  cpu time    0.01: real time    0.01
       DOS:  cpu time    0.00: real time    0.00
    CHARGE:  cpu time    0.10: real time    0.11
    MIXING:  cpu time    0.06: real time    0.06
    --------------------------------------------
      LOOP:  cpu time    2.44: real time    2.44

 eigenvalue-minimisations  :    47
 total energy-change (2. order) :-0.1636892E+00  (-0.1586040E-02)
 number of electron      11.0000001 magnetization       1.0091889
 augmentation part        0.6096758 magnetization       0.0326403

 Broyden mixing:
  rms(total) = 0.28102E-01    rms(broyden)= 0.27169E-01
  rms(prec ) = 0.28700E-01
  weight for this iteration     100.00

 eigenvalues of (default mixing * dielectric matrix)
  average eigenvalue GAMMA=   1.0595
  2.2221  2.2221  0.5158  1.2213  1.2213  1.0112  0.2621  0.7135  0.6027  0.6027

 Free energy of the ion-electron system (eV)
  ---------------------------------------------------
  alpha Z        PSCENC =         0.45022818
  Ewald energy   TEWEN  =        -9.67907987
  -1/2 Hartree   DENC   =      -588.72867621
  -exchange  EXHF       =         0.00000000
  -V(xc)+E(xc)   XCENC  =        45.14438450
  PAW double counting   =       581.70209930     -584.50600077
  entropy T*S    EENTRO =        -0.11282019
  eigenvalues    EBANDS =      -147.56525177
  atomic energy  EATOM  =       696.73819845
  ---------------------------------------------------
  free energy    TOTEN  =        -6.55691839 eV

  energy without entropy =       -6.44409820  energy(sigma->0) =       -6.50050829


--------------------------------------------------------------------------------------------------------




----------------------------------------- Iteration    1(  16)  ---------------------------------------


    POTLOK:  cpu time    1.66: real time    1.66
    SETDIJ:  cpu time    0.01: real time    0.02
    EDDIAG:  cpu time    0.10: real time    0.10
  RMM-DIIS:  cpu time    0.51: real time    0.51
    ORTHCH:  cpu time    0.01: real time    0.01
       DOS:  cpu time    0.00: real time    0.00
    CHARGE:  cpu time    0.10: real time    0.11
    MIXING:  cpu time    0.06: real time    0.06
    --------------------------------------------
      LOOP:  cpu time    2.46: real time    2.46

 eigenvalue-minimisations  :    49
 total energy-change (2. order) :-0.3744200E-01  (-0.3279423E-03)
 number of electron      11.0000001 magnetization       1.0015305
 augmentation part        0.6103553 magnetization       0.0227825

 Broyden mixing:
  rms(total) = 0.95128E-02    rms(broyden)= 0.90473E-02
  rms(prec ) = 0.11195E-01
  weight for this iteration     100.00

 eigenvalues of (default mixing * dielectric matrix)
  average eigenvalue GAMMA=   1.1477
  2.4999  2.4999  0.5156  1.4541  1.4541  0.2621  1.0067  1.0067  0.6287  0.6287
  0.6688

 Free energy of the ion-electron system (eV)
  ---------------------------------------------------
  alpha Z        PSCENC =         0.45022818
  Ewald energy   TEWEN  =        -9.67907987
  -1/2 Hartree   DENC   =      -588.75048069
  -exchange  EXHF       =         0.00000000
  -V(xc)+E(xc)   XCENC  =        45.15004677
  PAW double counting   =       581.76697650     -584.57238153
  entropy T*S    EENTRO =        -0.11278742
  eigenvalues    EBANDS =      -147.58508077
  atomic energy  EATOM  =       696.73819845
  ---------------------------------------------------
  free energy    TOTEN  =        -6.59436038 eV

  energy without entropy =       -6.48157296  energy(sigma->0) =       -6.53796667


--------------------------------------------------------------------------------------------------------




----------------------------------------- Iteration    1(  17)  ---------------------------------------


    POTLOK:  cpu time    1.65: real time    1.65
    SETDIJ:  cpu time    0.02: real time    0.02
    EDDIAG:  cpu time    0.10: real time    0.10
  RMM-DIIS:  cpu time    0.45: real time    0.45
    ORTHCH:  cpu time    0.00: real time    0.01
       DOS:  cpu time    0.00: real time    0.00
    CHARGE:  cpu time    0.11: real time    0.11
    MIXING:  cpu time    0.06: real time    0.06
    --------------------------------------------
      LOOP:  cpu time    2.40: real time    2.40

 eigenvalue-minimisations  :    43
 total energy-change (2. order) :-0.8880502E-02  (-0.1476647E-03)
 number of electron      11.0000001 magnetization       0.9983143
 augmentation part        0.6107615 magnetization       0.0182762

 Broyden mixing:
  rms(total) = 0.10382E-01    rms(broyden)= 0.10339E-01
  rms(prec ) = 0.11111E-01
  weight for this iteration     100.00

 eigenvalues of (default mixing * dielectric matrix)
  average eigenvalue GAMMA=   1.1347
  2.4868  2.4868  0.5156  1.3524  1.3524  1.2240  1.2240  0.2621  0.7940  0.6602
  0.6291  0.6291

 Free energy of the ion-electron system (eV)
  ---------------------------------------------------
  alpha Z        PSCENC =         0.45022818
  Ewald energy   TEWEN  =        -9.67907987
  -1/2 Hartree   DENC   =      -588.64350215
  -exchange  EXHF       =         0.00000000
  -V(xc)+E(xc)   XCENC  =        45.16703394
  PAW double counting   =       581.72138983     -584.52497591
  entropy T*S    EENTRO =        -0.11282193
  eigenvalues    EBANDS =      -147.71971143
  atomic energy  EATOM  =       696.73819845
  ---------------------------------------------------
  free energy    TOTEN  =        -6.60324088 eV

  energy without entropy =       -6.49041895  energy(sigma->0) =       -6.54682992


--------------------------------------------------------------------------------------------------------




----------------------------------------- Iteration    1(  18)  ---------------------------------------


    POTLOK:  cpu time    1.65: real time    1.65
    SETDIJ:  cpu time    0.02: real time    0.02
    EDDIAG:  cpu time    0.10: real time    0.10
  RMM-DIIS:  cpu time    0.44: real time    0.44
    ORTHCH:  cpu time    0.01: real time    0.01
       DOS:  cpu time    0.00: real time    0.00
    CHARGE:  cpu time    0.11: real time    0.11
    MIXING:  cpu time    0.07: real time    0.07
    --------------------------------------------
      LOOP:  cpu time    2.39: real time    2.39

 eigenvalue-minimisations  :    42
 total energy-change (2. order) :-0.3451112E-03  (-0.3645980E-04)
 number of electron      11.0000001 magnetization       0.9973261
 augmentation part        0.6109861 magnetization       0.0177023

 Broyden mixing:
  rms(total) = 0.63732E-02    rms(broyden)= 0.63534E-02
  rms(prec ) = 0.71809E-02
  weight for this iteration     100.00

 eigenvalues of (default mixing * dielectric matrix)
  average eigenvalue GAMMA=   1.1488
  2.5359  2.5359  1.8323  0.5156  1.3393  1.3393  0.2621  1.0146  0.9400  0.6276
  0.6276  0.6820  0.6820

 Free energy of the ion-electron system (eV)
  ---------------------------------------------------
  alpha Z        PSCENC =         0.45022818
  Ewald energy   TEWEN  =        -9.67907987
  -1/2 Hartree   DENC   =      -588.53103433
  -exchange  EXHF       =         0.00000000
  -V(xc)+E(xc)   XCENC  =        45.15251752
  PAW double counting   =       581.60112917     -584.40296205
  entropy T*S    EENTRO =        -0.11282868
  eigenvalues    EBANDS =      -147.81975439
  atomic energy  EATOM  =       696.73819845
  ---------------------------------------------------
  free energy    TOTEN  =        -6.60358600 eV

  energy without entropy =       -6.49075731  energy(sigma->0) =       -6.54717165


--------------------------------------------------------------------------------------------------------




----------------------------------------- Iteration    1(  19)  ---------------------------------------


    POTLOK:  cpu time    1.64: real time    1.64
    SETDIJ:  cpu time    0.02: real time    0.02
    EDDIAG:  cpu time    0.10: real time    0.10
  RMM-DIIS:  cpu time    0.39: real time    0.39
    ORTHCH:  cpu time    0.00: real time    0.01
       DOS:  cpu time    0.00: real time    0.00
    CHARGE:  cpu time    0.10: real time    0.11
    MIXING:  cpu time    0.08: real time    0.07
    --------------------------------------------
      LOOP:  cpu time    2.34: real time    2.34

 eigenvalue-minimisations  :    36
 total energy-change (2. order) :-0.6733911E-03  (-0.1597197E-04)
 number of electron      11.0000001 magnetization       0.9984004
 augmentation part        0.6109801 magnetization       0.0192239

 Broyden mixing:
  rms(total) = 0.30365E-02    rms(broyden)= 0.30090E-02
  rms(prec ) = 0.44442E-02
  weight for this iteration     100.00

 eigenvalues of (default mixing * dielectric matrix)
  average eigenvalue GAMMA=   1.1919
  2.6352  2.6352  2.0524  0.5156  1.3139  1.3139  1.2134  1.2134  0.2621  0.9069
  0.7285  0.6298  0.6298  0.6358

 Free energy of the ion-electron system (eV)
  ---------------------------------------------------
  alpha Z        PSCENC =         0.45022818
  Ewald energy   TEWEN  =        -9.67907987
  -1/2 Hartree   DENC   =      -588.46718625
  -exchange  EXHF       =         0.00000000
  -V(xc)+E(xc)   XCENC  =        45.13871135
  PAW double counting   =       581.53718561     -584.33851318
  entropy T*S    EENTRO =        -0.11283240
  eigenvalues    EBANDS =      -147.87097128
  atomic energy  EATOM  =       696.73819845
  ---------------------------------------------------
  free energy    TOTEN  =        -6.60425939 eV

  energy without entropy =       -6.49142699  energy(sigma->0) =       -6.54784319


--------------------------------------------------------------------------------------------------------




----------------------------------------- Iteration    1(  20)  ---------------------------------------


    POTLOK:  cpu time    1.64: real time    1.64
    SETDIJ:  cpu time    0.02: real time    0.02
    EDDIAG:  cpu time    0.10: real time    0.11
  RMM-DIIS:  cpu time    0.37: real time    0.36
    ORTHCH:  cpu time    0.00: real time    0.01
       DOS:  cpu time    0.00: real time    0.00
    CHARGE:  cpu time    0.11: real time    0.11
    MIXING:  cpu time    0.08: real time    0.08
    --------------------------------------------
      LOOP:  cpu time    2.32: real time    2.32

 eigenvalue-minimisations  :    33
 total energy-change (2. order) :-0.1083853E-02  (-0.1651214E-04)
 number of electron      11.0000001 magnetization       0.9989935
 augmentation part        0.6107770 magnetization       0.0200042

 Broyden mixing:
  rms(total) = 0.21304E-02    rms(broyden)= 0.19156E-02
  rms(prec ) = 0.28678E-02
  weight for this iteration     100.00
  WARNING: grid for Broyden might be to small

 eigenvalues of (default mixing * dielectric matrix)
  average eigenvalue GAMMA=   1.2643
  3.6762  2.4822  2.4822  0.5156  1.5725  1.2735  1.2735  0.2621  1.1477  0.9141
  0.7950  0.6249  0.6249  0.6905  0.6301

 Free energy of the ion-electron system (eV)
  ---------------------------------------------------
  alpha Z        PSCENC =         0.45022818
  Ewald energy   TEWEN  =        -9.67907987
  -1/2 Hartree   DENC   =      -588.47884004
  -exchange  EXHF       =         0.00000000
  -V(xc)+E(xc)   XCENC  =        45.13555194
  PAW double counting   =       581.57488745     -584.37721202
  entropy T*S    EENTRO =        -0.11283790
  eigenvalues    EBANDS =      -147.85623943
  atomic energy  EATOM  =       696.73819845
  ---------------------------------------------------
  free energy    TOTEN  =        -6.60534324 eV

  energy without entropy =       -6.49250534  energy(sigma->0) =       -6.54892429


--------------------------------------------------------------------------------------------------------




----------------------------------------- Iteration    1(  21)  ---------------------------------------


    POTLOK:  cpu time    1.64: real time    1.65
    SETDIJ:  cpu time    0.02: real time    0.02
    EDDIAG:  cpu time    0.10: real time    0.10
  RMM-DIIS:  cpu time    0.38: real time    0.38
    ORTHCH:  cpu time    0.00: real time    0.01
       DOS:  cpu time    0.00: real time    0.00
    CHARGE:  cpu time    0.10: real time    0.11
    MIXING:  cpu time    0.08: real time    0.08
    --------------------------------------------
      LOOP:  cpu time    2.34: real time    2.34

 eigenvalue-minimisations  :    35
 total energy-change (2. order) :-0.3286409E-03  (-0.8719272E-05)
 number of electron      11.0000001 magnetization       0.9993240
 augmentation part        0.6106523 magnetization       0.0203011

 Broyden mixing:
  rms(total) = 0.14646E-02    rms(broyden)= 0.14245E-02
  rms(prec ) = 0.18769E-02
  weight for this iteration     100.00

 eigenvalues of (default mixing * dielectric matrix)
  average eigenvalue GAMMA=   1.2502
  3.8329  2.5360  2.5360  0.5156  1.5087  1.2820  1.2820  0.2621  1.0588  0.9503
  0.9503  0.7679  0.6310  0.6310  0.6293  0.6293

 Free energy of the ion-electron system (eV)
  ---------------------------------------------------
  alpha Z        PSCENC =         0.45022818
  Ewald energy   TEWEN  =        -9.67907987
  -1/2 Hartree   DENC   =      -588.49630267
  -exchange  EXHF       =         0.00000000
  -V(xc)+E(xc)   XCENC  =        45.13769864
  PAW double counting   =       581.61438228     -584.41669061
  entropy T*S    EENTRO =        -0.11283785
  eigenvalues    EBANDS =      -147.84126844
  atomic energy  EATOM  =       696.73819845
  ---------------------------------------------------
  free energy    TOTEN  =        -6.60567188 eV

  energy without entropy =       -6.49283403  energy(sigma->0) =       -6.54925296


--------------------------------------------------------------------------------------------------------




----------------------------------------- Iteration    1(  22)  ---------------------------------------


    POTLOK:  cpu time    1.65: real time    1.65
    SETDIJ:  cpu time    0.02: real time    0.02
    EDDIAG:  cpu time    0.10: real time    0.10
  RMM-DIIS:  cpu time    0.34: real time    0.33
    ORTHCH:  cpu time    0.00: real time    0.01
       DOS:  cpu time    0.00: real time    0.00
    CHARGE:  cpu time    0.11: real time    0.11
    MIXING:  cpu time    0.09: real time    0.09
    --------------------------------------------
      LOOP:  cpu time    2.30: real time    2.31

 eigenvalue-minimisations  :    30
 total energy-change (2. order) :-0.2027000E-03  (-0.4134487E-05)
 number of electron      11.0000001 magnetization       1.0000840
 augmentation part        0.6106437 magnetization       0.0210242

 Broyden mixing:
  rms(total) = 0.72500E-03    rms(broyden)= 0.67811E-03
  rms(prec ) = 0.82047E-03
  weight for this iteration     100.00

 eigenvalues of (default mixing * dielectric matrix)
  average eigenvalue GAMMA=   1.3630
  4.7697  2.6521  2.6521  0.5156  1.5715  1.5715  1.5297  1.2329  1.2329  0.2621
  0.9869  0.9333  0.7402  0.6307  0.6307  0.6293  0.6293

 Free energy of the ion-electron system (eV)
  ---------------------------------------------------
  alpha Z        PSCENC =         0.45022818
  Ewald energy   TEWEN  =        -9.67907987
  -1/2 Hartree   DENC   =      -588.49747118
  -exchange  EXHF       =         0.00000000
  -V(xc)+E(xc)   XCENC  =        45.13903460
  PAW double counting   =       581.62718219     -584.42893181
  entropy T*S    EENTRO =        -0.11283756
  eigenvalues    EBANDS =      -147.84219758
  atomic energy  EATOM  =       696.73819845
  ---------------------------------------------------
  free energy    TOTEN  =        -6.60587458 eV

  energy without entropy =       -6.49303702  energy(sigma->0) =       -6.54945580


--------------------------------------------------------------------------------------------------------




----------------------------------------- Iteration    1(  23)  ---------------------------------------


    POTLOK:  cpu time    1.65: real time    1.65
    SETDIJ:  cpu time    0.02: real time    0.02
    EDDIAG:  cpu time    0.10: real time    0.10
  RMM-DIIS:  cpu time    0.34: real time    0.34
    ORTHCH:  cpu time    0.00: real time    0.01
       DOS:  cpu time    0.00: real time    0.00
    CHARGE:  cpu time    0.11: real time    0.11
    MIXING:  cpu time    0.09: real time    0.09
    --------------------------------------------
      LOOP:  cpu time    2.31: real time    2.31

 eigenvalue-minimisations  :    29
 total energy-change (2. order) :-0.1061245E-03  (-0.2351103E-05)
 number of electron      11.0000001 magnetization       1.0003125
 augmentation part        0.6106126 magnetization       0.0213855

 Broyden mixing:
  rms(total) = 0.12197E-02    rms(broyden)= 0.12182E-02
  rms(prec ) = 0.12635E-02
  weight for this iteration     100.00

 eigenvalues of (default mixing * dielectric matrix)
  average eigenvalue GAMMA=   1.4458
  6.1551  2.6831  2.6831  2.3301  0.5156  1.4239  1.4239  1.2276  1.2276  0.2621
  0.9806  0.9320  0.9320  0.7279  0.6312  0.6312  0.6347  0.6232

 Free energy of the ion-electron system (eV)
  ---------------------------------------------------
  alpha Z        PSCENC =         0.45022818
  Ewald energy   TEWEN  =        -9.67907987
  -1/2 Hartree   DENC   =      -588.48567441
  -exchange  EXHF       =         0.00000000
  -V(xc)+E(xc)   XCENC  =        45.13505526
  PAW double counting   =       581.59124088     -584.39301056
  entropy T*S    EENTRO =        -0.11283776
  eigenvalues    EBANDS =      -147.85010087
  atomic energy  EATOM  =       696.73819845
  ---------------------------------------------------
  free energy    TOTEN  =        -6.60598070 eV

  energy without entropy =       -6.49314295  energy(sigma->0) =       -6.54956183


--------------------------------------------------------------------------------------------------------




----------------------------------------- Iteration    1(  24)  ---------------------------------------


    POTLOK:  cpu time    1.65: real time    1.65
    SETDIJ:  cpu time    0.02: real time    0.02
    EDDIAG:  cpu time    0.10: real time    0.10
  RMM-DIIS:  cpu time    0.34: real time    0.34
    ORTHCH:  cpu time    0.01: real time    0.01
       DOS:  cpu time    0.00: real time    0.00
    --------------------------------------------
      LOOP:  cpu time    2.12: real time    2.12

 eigenvalue-minimisations  :    25
 total energy-change (2. order) :-0.2354884E-04  (-0.8113129E-06)
 number of electron      11.0000001 magnetization       1.0003125
 augmentation part        0.6106126 magnetization       0.0213855

 Free energy of the ion-electron system (eV)
  ---------------------------------------------------
  alpha Z        PSCENC =         0.45022818
  Ewald energy   TEWEN  =        -9.67907987
  -1/2 Hartree   DENC   =      -588.49456854
  -exchange  EXHF       =         0.00000000
  -V(xc)+E(xc)   XCENC  =        45.13725550
  PAW double counting   =       581.59092263     -584.39282524
  entropy T*S    EENTRO =        -0.11283745
  eigenvalues    EBANDS =      -147.84329792
  atomic energy  EATOM  =       696.73819845
  ---------------------------------------------------
  free energy    TOTEN  =        -6.60600425 eV

  energy without entropy =       -6.49316680  energy(sigma->0) =       -6.54958553


--------------------------------------------------------------------------------------------------------




 average (electrostatic) potential at core
  the test charge radii are     0.7089  0.7215
  (the norm of the test charge is              1.0000)
       1 -76.9166       2 -82.5210
 
 
 
 E-fermi :  -6.9080     XC(G=0):  -0.6461     alpha+bet : -0.1481


 spin component 1

 k-point   1 :       0.0000    0.0000    0.0000
  band No.  band energies     occupation 
      1     -22.9510      1.00000
      2     -19.9706      1.00000
      3      -9.9240      1.00000
      4      -9.3486      1.00000
      5      -9.3473      1.00000
      6      -6.9084      0.50115
      7      -6.9076      0.49885
      8      -4.9276      0.00000
      9      -0.3899      0.00000
     10       1.0078      0.00000

 spin component 2

 k-point   1 :       0.0000    0.0000    0.0000
  band No.  band energies     occupation 
      1     -24.2358      1.00000
      2     -17.1926      1.00000
      3      -9.9453      1.00000
      4      -9.0136      1.00000
      5      -9.0065      1.00000
      6      -5.2492      0.00000
      7      -5.2479      0.00000
      8      -4.3979      0.00000
      9      -0.2418      0.00000
     10       1.0759      0.00000


--------------------------------------------------------------------------------------------------------


 soft charge-density along one line, spin component           1
         0         1         2         3         4         5         6         7         8         9
 total charge-density along one line
 
 soft charge-density along one line, spin component           2
         0         1         2         3         4         5         6         7         8         9
 total charge-density along one line
 
 pseudopotential strength for first ion, spin component:           1
 14.653  17.611   0.000   0.002  -0.000   0.000  -0.001  -0.000
 17.611  21.167   0.000   0.003  -0.000   0.000  -0.001  -0.000
  0.000   0.000  -7.956  -0.000   0.000 -11.161  -0.000   0.000
  0.002   0.003  -0.000  -7.880   0.000  -0.000 -11.037   0.000
 -0.000  -0.000   0.000   0.000  -7.956   0.000   0.000 -11.161
  0.000   0.000 -11.161  -0.000   0.000 -15.027  -0.000   0.000
 -0.001  -0.001  -0.000 -11.037   0.000  -0.000 -14.828   0.000
 -0.000  -0.000   0.000   0.000 -11.161   0.000   0.000 -15.027
 pseudopotential strength for first ion, spin component:           2
 13.801  16.569   0.000  -0.006  -0.000   0.000  -0.009  -0.000
 16.569  19.894   0.000  -0.007  -0.000   0.000  -0.012  -0.000
  0.000   0.000  -7.476  -0.000   0.000 -10.401  -0.000   0.000
 -0.006  -0.007  -0.000  -7.647  -0.000  -0.000 -10.676  -0.000
 -0.000  -0.000   0.000  -0.000  -7.476   0.000  -0.000 -10.401
  0.000   0.000 -10.401  -0.000   0.000 -13.828  -0.000   0.000
 -0.009  -0.012  -0.000 -10.676  -0.000  -0.000 -14.263  -0.000
 -0.000  -0.000   0.000  -0.000 -10.401   0.000  -0.000 -13.828
 total augmentation occupancy for first ion, spin component:           1
  2.396  -0.251   0.000   0.221   0.000   0.000  -0.046   0.000
 -0.251   0.157   0.000  -0.310   0.000   0.000   0.046   0.000
  0.000   0.000   0.938   0.000   0.000   0.033   0.000   0.000
  0.221  -0.310   0.000   1.106   0.000   0.000  -0.093   0.000
  0.000   0.000   0.000   0.000   0.937   0.000   0.000   0.033
  0.000   0.000   0.033   0.000   0.000   0.004   0.000   0.000
 -0.046   0.046   0.000  -0.093   0.000   0.000   0.015   0.000
  0.000   0.000   0.000   0.000   0.033   0.000   0.000   0.004
 total augmentation occupancy for first ion, spin component:           2
 -0.315   0.178   0.000  -0.005   0.000   0.000   0.014   0.000
  0.178  -0.045   0.000   0.028   0.000   0.000  -0.015   0.000
  0.000   0.000   0.831   0.000   0.000   0.048   0.000   0.000
 -0.005   0.028   0.000   0.304   0.000   0.000   0.027   0.000
  0.000   0.000   0.000   0.000   0.829   0.000   0.000   0.048
  0.000   0.000   0.048   0.000   0.000   0.002   0.000   0.000
  0.014  -0.015   0.000   0.027   0.000   0.000  -0.006   0.000
  0.000   0.000   0.000   0.000   0.048   0.000   0.000   0.002


------------------------ aborting loop because EDIFF is reached ----------------------------------------


    CHARGE:  cpu time    0.11: real time    0.11
    FORLOC:  cpu time    0.05: real time    0.05
    FORNL :  cpu time    0.11: real time    0.11
    STRESS:  cpu time    0.36: real time    0.36
    FORCOR:  cpu time    1.72: real time    1.72
    FORHAR:  cpu time    0.18: real time    0.18
    MIXING:  cpu time    0.10: real time    0.10

  FORCE on cell =-STRESS in cart. coord.  units (eV):
  Direction    XX          YY          ZZ          XY          YZ          ZX
  --------------------------------------------------------------------------------------
  Alpha Z     0.45023     0.45023     0.45023
  Ewald     -76.85757   -81.45789   148.63637     0.00000     0.00000    -0.00000
  Hartree   148.47502   143.95243   296.06113    -0.00000    -0.00000    -0.00000
  E(xc)     -48.59651   -48.59678   -48.07832     0.00000    -0.00000    -0.00000
  Local    -225.52036  -216.32542  -586.76814    -0.00000    -0.00000     0.00000
  n-local   -27.57773   -27.55041   -24.37379     0.00000     0.00002     0.00000
  augment     6.59614     6.58915     5.39927    -0.00000    -0.00000     0.00000
  Kinetic   221.74766   221.70307   197.99314    -0.00001    -0.00008    -0.00000
  Fock        0.00000     0.00000     0.00000     0.00000     0.00000     0.00000
  -------------------------------------------------------------------------------------
  Total      -1.28314    -1.23561   -10.68010     0.00000     0.00000     0.00000
  in kB      -1.88207    -1.81236   -15.66528     0.00000     0.00000     0.00000
  external pressure =       -6.45 kB  Pullay stress =        0.00 kB


 VOLUME and BASIS-vectors are now :
 -----------------------------------------------------------------------------
  energy-cutoff  :      400.00
  volume of cell :     1092.32
      direct lattice vectors                 reciprocal lattice vectors
    10.100000000  0.000000000  0.000000000     0.099009901  0.000000000  0.000000000
     0.000000000 10.300000000  0.000000000     0.000000000  0.097087379  0.000000000
     0.000000000  0.000000000 10.500000000     0.000000000  0.000000000  0.095238095

  length of vectors
    10.100000000 10.300000000 10.500000000     0.099009901  0.097087379  0.095238095


 FORCES acting on ions
    electron-ion (+dipol)            ewald-force                    non-local-force                 convergence-correction
 -----------------------------------------------------------------------------------------------
   0.186E-14 0.160E-13 0.108E+03   0.633E-16 -.189E-16 -.116E+03   0.000E+00 0.000E+00 0.140E+02   0.160E-13 0.240E-13 0.592E-02
   0.110E-14 -.417E-14 -.105E+03   0.875E-17 0.223E-16 0.116E+03   0.000E+00 0.000E+00 -.164E+02   -.189E-14 -.237E-14 0.406E-02
 -----------------------------------------------------------------------------------------------
   0.296E-14 0.118E-13 0.243E+01   0.720E-16 0.346E-17 0.000E+00   0.000E+00 0.000E+00 -.244E+01   0.141E-13 0.216E-13 0.998E-02
 
 
 POSITION                                       TOTAL-FORCE (eV/Angst)
 -----------------------------------------------------------------------------------
      0.00000      0.00000      0.00000         0.000000      0.000000      5.058395
      0.00000      0.00000      1.90000         0.000000      0.000000     -5.058395
 -----------------------------------------------------------------------------------
    total drift:                                0.000000      0.000000      0.001065


--------------------------------------------------------------------------------------------------------



  FREE ENERGIE OF THE ION-ELECTRON SYSTEM (eV)
  ---------------------------------------------------
  free  energy   TOTEN  =        -6.60600425 eV

  energy  without entropy=       -6.49316680  energy(sigma->0) =       -6.54958553
 


--------------------------------------------------------------------------------------------------------


    POTLOK:  cpu time    1.67: real time    1.67


--------------------------------------------------------------------------------------------------------


     LOOP+:  cpu time   54.98: real time   55.02
    4ORBIT:  cpu time    0.00: real time    0.00

 total amount of memory used by VASP on root node   175530. kBytes
========================================================================

   base      :      30000. kBytes
   nonl-proj :       3171. kBytes
   fftplans  :      37440. kBytes
   grid      :      98560. kBytes
   one-center:         12. kBytes
   wavefun   :       6347. kBytes
 
  
  
 General timing and accounting informations for this job:
 ========================================================
  
                  Total CPU time used (sec):       56.512
                            User time (sec):       56.248
                          System time (sec):        0.264
                         Elapsed time (sec):       56.547
  
                   Maximum memory used (kb):      330344.
                   Average memory used (kb):           0.
  
                          Minor page faults:        67854
                          Major page faults:            0
                 Voluntary context switches:            2
