 vasp.5.3.3 18Dez12 (build Sep  7 2015 22:32:56) complex                        
  
 executed on             LinuxIFC date 2002.02.18  05:52:15
 running on    1 total cores
 distrk:  each k-point on    1 cores,    1 groups
 distr:  one band on NCORES_PER_BAND=   1 cores,    1 groups


--------------------------------------------------------------------------------------------------------


 INCAR:
 POTCAR:    PAW_PBE N 08Apr2002                   
 POTCAR:    PAW_PBE O 08Apr2002                   
 POTCAR:    PAW_PBE N 08Apr2002                   
   VRHFIN =N: s2p3                                                              
   LEXCH  = PE                                                                  
   EATOM  =   264.5486 eV,   19.4438 Ry                                         
                                                                                
   TITEL  = PAW_PBE N 08Apr2002                                                 
   LULTRA =        F    use ultrasoft PP ?                                      
   IUNSCR =        1    unscreen: 0-lin 1-nonlin 2-no                           
   RPACOR =    1.200    partial core radius                                     
   POMASS =   14.001; ZVAL   =    5.000    mass and valenz                      
   RCORE  =    1.500    outmost cutoff radius                                   
   RWIGS  =    1.400; RWIGS  =    0.741    wigner-seitz radius (au A)           
   ENMAX  =  400.000; ENMIN  =  300.000 eV                                      
   ICORE  =        2    local potential                                         
   LCOR   =        T    correct aug charges                                     
   LPAW   =        T    paw PP                                                  
   EAUG   =  627.112                                                            
   DEXC   =    0.000                                                            
   RMAX   =    1.529    core radius for proj-oper                               
   RAUG   =    1.300    factor for augmentation sphere                          
   RDEP   =    1.514    radius for radial grids                                 
   RDEPT  =    1.338    core radius for aug-charge                              
                                                                                
   Atomic configuration                                                         
    4 entries                                                                   
     n  l   j            E        occ.                                          
     1  0  0.50      -384.7179   2.0000                                         
     2  0  0.50       -18.5828   2.0000                                         
     2  1  0.50        -7.0898   3.0000                                         
     3  2  1.50        -6.8029   0.0000                                         
   Description                                                                  
     l       E           TYP  RCUT    TYP  RCUT                                 
     0    -18.5828119     23  1.200                                             
     0    -13.5018863     23  1.200                                             
     1     -7.0897853     23  1.500                                             
     1      9.5240782     23  1.500                                             
     2     -6.8029130      7  1.500                                             
  local pseudopotential read in
  partial core-charges read in
  partial kinetic energy density read in
  atomic valenz-charges read in
  non local Contribution for L=           0  read in
    real space projection operators read in
  non local Contribution for L=           0  read in
    real space projection operators read in
  non local Contribution for L=           1  read in
    real space projection operators read in
  non local Contribution for L=           1  read in
    real space projection operators read in
    PAW grid and wavefunctions read in
 
   number of l-projection  operators is LMAX  =           4
   number of lm-projection operators is LMMAX =           8
 
 POTCAR:    PAW_PBE O 08Apr2002                   
   VRHFIN =O: s2p4                                                              
   LEXCH  = PE                                                                  
   EATOM  =   432.3788 eV,   31.7789 Ry                                         
                                                                                
   TITEL  = PAW_PBE O 08Apr2002                                                 
   LULTRA =        F    use ultrasoft PP ?                                      
   IUNSCR =        1    unscreen: 0-lin 1-nonlin 2-no                           
   RPACOR =    1.200    partial core radius                                     
   POMASS =   16.000; ZVAL   =    6.000    mass and valenz                      
   RCORE  =    1.520    outmost cutoff radius                                   
   RWIGS  =    1.550; RWIGS  =    0.820    wigner-seitz radius (au A)           
   ENMAX  =  400.000; ENMIN  =  300.000 eV                                      
   ICORE  =        2    local potential                                         
   LCOR   =        T    correct aug charges                                     
   LPAW   =        T    paw PP                                                  
   EAUG   =  605.392                                                            
   DEXC   =    0.000                                                            
   RMAX   =    1.553    core radius for proj-oper                               
   RAUG   =    1.300    factor for augmentation sphere                          
   RDEP   =    1.550    radius for radial grids                                 
   RDEPT  =    1.329    core radius for aug-charge                              
                                                                                
   Atomic configuration                                                         
    4 entries                                                                   
     n  l   j            E        occ.                                          
     1  0  0.50      -514.6923   2.0000                                         
     2  0  0.50       -23.9615   2.0000                                         
     2  1  0.50        -9.0305   4.0000                                         
     3  2  1.50        -9.5241   0.0000                                         
   Description                                                                  
     l       E           TYP  RCUT    TYP  RCUT                                 
     0    -23.9615318     23  1.200                                             
     0     -9.5240782     23  1.200                                             
     1     -9.0304911     23  1.520                                             
     1      8.1634956     23  1.520                                             
     2     -9.5240782      7  1.500                                             
  local pseudopotential read in
  partial core-charges read in
  partial kinetic energy density read in
  kinetic energy density of atom read in
  atomic valenz-charges read in
  non local Contribution for L=           0  read in
    real space projection operators read in
  non local Contribution for L=           0  read in
    real space projection operators read in
  non local Contribution for L=           1  read in
    real space projection operators read in
  non local Contribution for L=           1  read in
    real space projection operators read in
    PAW grid and wavefunctions read in
 
   number of l-projection  operators is LMAX  =           4
   number of lm-projection operators is LMMAX =           8
 
  PAW_PBE N 08Apr2002                   :
 energy of atom  1       EATOM= -264.5486
 kinetic energy error for atom=    0.0736 (will be added to EATOM!!)
  PAW_PBE O 08Apr2002                   :
 energy of atom  2       EATOM= -432.3788
 kinetic energy error for atom=    0.1156 (will be added to EATOM!!)
 
 
 POSCAR: CO molecule in a box                    
  positions in cartesian coordinates
  No initial velocities read in
 exchange correlation table for  LEXCH =        8
   RHO(1)=    0.500       N(1)  =     2000
   RHO(2)=  100.500       N(2)  =     4000
 


--------------------------------------------------------------------------------------------------------


 ion  position               nearest neighbor table
   1  0.000  0.000  0.000-   2 1.80
   2  0.000  0.000  0.171-   1 1.80
 
  LATTYP: Found a simple orthorhombic cell.
 ALAT       =    10.1000000000
 B/A-ratio  =     1.0198019802
 C/A-ratio  =     1.0396039604
  
  Lattice vectors:
  
 A1 = (  10.1000000000,   0.0000000000,   0.0000000000)
 A2 = (   0.0000000000,  10.3000000000,   0.0000000000)
 A3 = (   0.0000000000,   0.0000000000,  10.5000000000)


Analysis of symmetry for initial positions (statically):
=====================================================================
 Subroutine PRICEL returns:
 Original cell was already a primitive cell.
 

 Routine SETGRP: Setting up the symmetry group for a 
 simple orthorhombic supercell.


 Subroutine GETGRP returns: Found  4 space group operations
 (whereof  4 operations were pure point group operations)
 out of a pool of  8 trial point group operations.


The static configuration has the point symmetry C_2v.


Analysis of symmetry for dynamics (positions and initial velocities):
=====================================================================
 Subroutine PRICEL returns:
 Original cell was already a primitive cell.
 

 Routine SETGRP: Setting up the symmetry group for a 
 simple orthorhombic supercell.


 Subroutine GETGRP returns: Found  4 space group operations
 (whereof  4 operations were pure point group operations)
 out of a pool of  8 trial point group operations.


The dynamic configuration has the point symmetry C_2v.


Analysis of constrained symmetry for selective dynamics:
=====================================================================
 Subroutine PRICEL returns:
 Original cell was already a primitive cell.
 

 Routine SETGRP: Setting up the symmetry group for a 
 simple orthorhombic supercell.


 Subroutine GETGRP returns: Found  4 space group operations
 (whereof  4 operations were pure point group operations)
 out of a pool of  8 trial point group operations.


The constrained configuration has the point symmetry C_2v.


Analysis of magnetic symmetry:
=====================================================================

 Subroutine MAGSYM returns: Found  4 space group operations
 (whereof  4 operations were pure point group operations)
 out of a pool of  4 trial space group operations
 (whereof  4 operations were pure point group operations)
 and found also     1 'primitive' translations


The magnetic configuration has the point symmetry C_2v.


 irot  :   1
 --------------------------------------------------------------------
 isymop:   1   0   0
           0   1   0
           0   0   1

 gtrans:     0.0000000     0.0000000     0.0000000

 ptrans:     0.0000000     0.0000000     0.0000000
 rotmap:
 (   1->   1)  (   2->   2) 


 irot  :   2
 --------------------------------------------------------------------
 isymop:  -1   0   0
           0  -1   0
           0   0   1

 gtrans:     0.0000000     0.0000000     0.0000000

 ptrans:     0.0000000     0.0000000     0.0000000
 rotmap:
 (   1->   1)  (   2->   2) 


 irot  :   3
 --------------------------------------------------------------------
 isymop:   1   0   0
           0  -1   0
           0   0   1

 gtrans:     0.0000000     0.0000000     0.0000000

 ptrans:     0.0000000     0.0000000     0.0000000
 rotmap:
 (   1->   1)  (   2->   2) 


 irot  :   4
 --------------------------------------------------------------------
 isymop:  -1   0   0
           0   1   0
           0   0   1

 gtrans:     0.0000000     0.0000000     0.0000000

 ptrans:     0.0000000     0.0000000     0.0000000
 rotmap:
 (   1->   1)  (   2->   2) 
 
 
 KPOINTS: Gamma-point only                        

Automatic generation of k-mesh.
Space group operators:
 irot       det(A)        alpha          n_x          n_y          n_z        tau_x        tau_y        tau_z
    1     1.000000     0.000000     1.000000     0.000000     0.000000     0.000000     0.000000     0.000000
    2     1.000000   180.000000     0.000000     0.000000     1.000000     0.000000     0.000000     0.000000
    3    -1.000000   180.000000     0.000000     1.000000     0.000000     0.000000     0.000000     0.000000
    4    -1.000000   180.000000     1.000000     0.000000     0.000000     0.000000     0.000000     0.000000
 
 Subroutine IBZKPT returns following result:
 ===========================================
 
 Found      1 irreducible k-points:
 
 Following reciprocal coordinates:
            Coordinates               Weight
  0.000000  0.000000  0.000000      1.000000
 
 Following cartesian coordinates:
            Coordinates               Weight
  0.000000  0.000000  0.000000      1.000000
 


--------------------------------------------------------------------------------------------------------




 Dimension of arrays:
   k-points           NKPTS =      1   k-points in BZ     NKDIM =      1   number of bands    NBANDS=     10
   number of dos      NEDOS =    301   number of ions     NIONS =      2
   non local maximal  LDIM  =      4   non local SUM 2l+1 LMDIM =      8
   total plane-waves  NPLWV = 135000
   max r-space proj   IRMAX =      1   max aug-charges    IRDMAX=   1803
   dimension x,y,z NGX =    50 NGY =   50 NGZ =   54
   dimension x,y,z NGXF=   100 NGYF=  100 NGZF=  108
   support grid    NGXF=   100 NGYF=  100 NGZF=  108
   ions per type =               1   1
 NGX,Y,Z   is equivalent  to a cutoff of   8.23,  8.07,  8.55 a.u.
 NGXF,Y,Z  is equivalent  to a cutoff of  16.46, 16.14, 17.10 a.u.


 I would recommend the setting:
   dimension x,y,z NGX =    49 NGY =   50 NGZ =   51
 SYSTEM =  Hello World                             
 POSCAR =  CO molecule in a box                    

 Startparameter for this run:
   NWRITE =      2    write-flag & timer
   PREC   = normal    normal or accurate (medium, high low for compatibility)
   ISTART =      0    job   : 0-new  1-cont  2-samecut
   ICHARG =      2    charge: 1-file 2-atom 10-const
   ISPIN  =      2    spin polarized calculation?
   LNONCOLLINEAR =      F non collinear calculations
   LSORBIT =      F    spin-orbit coupling
   INIWAV =      1    electr: 0-lowe 1-rand  2-diag
   LASPH  =      F    aspherical Exc in radial PAW
   METAGGA=      F    non-selfconsistent MetaGGA calc.

 Electronic Relaxation 1
   ENCUT  =  400.0 eV  29.40 Ry    5.42 a.u.  16.47 16.80 17.12*2*pi/ulx,y,z
   ENINI  =  400.0     initial cutoff
   ENAUG  =  627.1 eV  augmentation charge cutoff
   NELM   =     60;   NELMIN=  2; NELMDL=  0     # of ELM steps 
   EDIFF  = 0.1E-03   stopping-criterion for ELM
   LREAL  =      F    real-space projection
   NLSPLINE    = F    spline interpolate recip. space projectors
   LCOMPAT=      F    compatible to vasp.4.4
   GGA_COMPAT  = T    GGA compatible to vasp.4.4-vasp.4.6
   LMAXPAW     = -100 max onsite density
   LMAXMIX     =    2 max onsite mixed and CHGCAR
   VOSKOWN=      0    Vosko Wilk Nusair interpolation
   ROPT   =    0.00000   0.00000
 Ionic relaxation
   EDIFFG = -.1E-01   stopping-criterion for IOM
   NSW    =      0    number of steps for IOM
   NBLOCK =      1;   KBLOCK =      1    inner block; outer block 
   IBRION =     -1    ionic relax: 0-MD 1-quasi-New 2-CG
   NFREE  =      0    steps in history (QN), initial steepest desc. (CG)
   ISIF   =      2    stress and relaxation
   IWAVPR =     10    prediction:  0-non 1-charg 2-wave 3-comb
   ISYM   =      2    0-nonsym 1-usesym 2-fastsym
   LCORR  =      T    Harris-Foulkes like correction to forces

   POTIM  = 0.5000    time-step for ionic-motion
   TEIN   =    0.0    initial temperature
   TEBEG  =    0.0;   TEEND  =   0.0 temperature during run
   SMASS  =  -3.00    Nose mass-parameter (am)
   estimated Nose-frequenzy (Omega)   =  0.10E-29 period in steps =****** mass=  -0.233E-26a.u.
   SCALEE = 1.0000    scale energy and forces
   NPACO  =    256;   APACO  = 16.0  distance and # of slots for P.C.
   PSTRESS=    0.0 pullay stress

  Mass of Ions in am
   POMASS =  14.00 16.00
  Ionic Valenz
   ZVAL   =   5.00  6.00
  Atomic Wigner-Seitz radii
   RWIGS  =  -1.00 -1.00
  virtual crystal weights 
   VCA    =   1.00  1.00
   NELECT =      11.0000    total number of electrons
   NUPDOWN=      -1.0000    fix difference up-down

 DOS related values:
   EMIN   =  10.00;   EMAX   =-10.00  energy-range for DOS
   EFERMI =   0.00
   ISMEAR =     0;   SIGMA  =   0.20  broadening in eV -4-tet -1-fermi 0-gaus

 Electronic relaxation 2 (details)
   IALGO  =     68    algorithm
   LDIAG  =      T    sub-space diagonalisation (order eigenvalues)
   LSUBROT=      T    optimize rotation matrix (better conditioning)
   TURBO    =      0    0=normal 1=particle mesh
   IRESTART =      0    0=no restart 2=restart with 2 vectors
   NREBOOT  =      0    no. of reboots
   NMIN     =      0    reboot dimension
   EREF     =   0.00    reference energy to select bands
   IMIX   =      4    mixing-type and parameters
     AMIX     =   0.40;   BMIX     =  1.00
     AMIX_MAG =   1.60;   BMIX_MAG =  1.00
     AMIN     =   0.10
     WC   =   100.;   INIMIX=   1;  MIXPRE=   1;  MAXMIX= -45

 Intra band minimization:
   WEIMIN = 0.0000     energy-eigenvalue tresh-hold
   EBREAK =  0.25E-05  absolut break condition
   DEPER  =   0.30     relativ break condition  

   TIME   =   0.40     timestep for ELM

  volume/ion in A,a.u.               =     546.16      3685.65
  Fermi-wavevector in a.u.,A,eV,Ry     =   0.353527  0.668070  1.700478  0.124982
  Thomas-Fermi vector in A             =   1.267843
 
 Write flags
   LWAVE  =      F    write WAVECAR
   LCHARG =      F    write CHGCAR
   LVTOT  =      F    write LOCPOT, total local potential
   LVHAR  =      F    write LOCPOT, Hartree potential only
   LELF   =      F    write electronic localiz. function (ELF)
   LORBIT =      0    0 simple, 1 ext, 2 COOP (PROOUT)


 Dipole corrections
   LMONO  =      F    monopole corrections only (constant potential shift)
   LDIPOL =      F    correct potential (dipole corrections)
   IDIPOL =      0    1-x, 2-y, 3-z, 4-all directions 
   EPSILON=  1.0000000 bulk dielectric constant

 Exchange correlation treatment:
   GGA     =    --    GGA type
   LEXCH   =     8    internal setting for exchange type
   VOSKOWN=      0    Vosko Wilk Nusair interpolation
   LHFCALC =     F    Hartree Fock is set to
   LHFONE  =     F    Hartree Fock one center treatment
   AEXX    =    0.0000 exact exchange contribution

 Linear response parameters
   LEPSILON=     F    determine dielectric tensor
   LRPA    =     F    only Hartree local field effects (RPA)
   LNABLA  =     F    use nabla operator in PAW spheres
   LVEL    =     F    velocity operator in full k-point grid
   LINTERFAST=   F  fast interpolation
   KINTER  =     0    interpolate to denser k-point grid
   CSHIFT  =0.1000    complex shift for real part using Kramers Kronig
   OMEGAMAX=  -1.0    maximum frequency
   DEG_THRESHOLD= 0.2000000E-02 threshold for treating states as degnerate
   RTIME   =    0.100 relaxation time in fs

 Orbital magnetization related:
   ORBITALMAG=     F  switch on orbital magnetization
   LCHIMAG   =     F  perturbation theory with respect to B field
   DQ        =  0.001000  dq finite difference perturbation B field



--------------------------------------------------------------------------------------------------------


 Static calculation
 charge density and potential will be updated during run
 spin polarized calculation
 RMM-DIIS sequential band-by-band and
  variant of blocked Davidson during initial phase
 perform sub-space diagonalisation
    before iterative eigenvector-optimisation
 modified Broyden-mixing scheme, WC =      100.0
 initial mixing is a Kerker type mixing with AMIX =  0.4000 and BMIX =      1.0000
 Hartree-type preconditioning will be used
 using additional bands            4
 reciprocal scheme for non local part
 use partial core corrections
 calculate Harris-corrections to forces 
   (improved forces if not selfconsistent)
 use gradient corrections 
 use of overlap-Matrix (Vanderbilt PP)
 Gauss-broadening in eV      SIGMA  =   0.20


--------------------------------------------------------------------------------------------------------


  energy-cutoff  :      400.00
  volume of cell :     1092.32
      direct lattice vectors                 reciprocal lattice vectors
    10.100000000  0.000000000  0.000000000     0.099009901  0.000000000  0.000000000
     0.000000000 10.300000000  0.000000000     0.000000000  0.097087379  0.000000000
     0.000000000  0.000000000 10.500000000     0.000000000  0.000000000  0.095238095

  length of vectors
    10.100000000 10.300000000 10.500000000     0.099009901  0.097087379  0.095238095


 
 k-points in units of 2pi/SCALE and weight: Gamma-point only                        
   0.00000000  0.00000000  0.00000000       1.000
 
 k-points in reciprocal lattice and weights: Gamma-point only                        
   0.00000000  0.00000000  0.00000000       1.000
 
 position of ions in fractional coordinates (direct lattice) 
   0.00000000  0.00000000  0.00000000
   0.00000000  0.00000000  0.17142857
 
 position of ions in cartesian coordinates  (Angst):
   0.00000000  0.00000000  0.00000000
   0.00000000  0.00000000  1.80000000
 


--------------------------------------------------------------------------------------------------------


 k-point  1 :   0.0000 0.0000 0.0000  plane waves:   19819

 maximum and minimum number of plane-waves per node :     19819    19819

 maximum number of plane-waves:     19819
 maximum index in each direction: 
   IXMAX=   16   IYMAX=   16   IZMAX=   17
   IXMIN=  -16   IYMIN=  -16   IZMIN=  -17

 WARNING: aliasing errors must be expected set NGX to  66 to avoid them
 WARNING: aliasing errors must be expected set NGY to  66 to avoid them
 WARNING: aliasing errors must be expected set NGZ to  70 to avoid them
 aliasing errors are usually negligible using standard VASP settings
 and one can safely disregard these warnings

 serial   3D FFT for wavefunctions
 parallel 3D FFT for charge:
    minimum data exchange during FFTs selected (reduces bandwidth)


 total amount of memory used by VASP on root node   175530. kBytes
========================================================================

   base      :      30000. kBytes
   nonl-proj :       3171. kBytes
   fftplans  :      37440. kBytes
   grid      :      98560. kBytes
   one-center:         12. kBytes
   wavefun   :       6347. kBytes
 
 Broyden mixing: mesh for mixing (old mesh)
   NGX = 33   NGY = 33   NGZ = 35
  (NGX  =100   NGY  =100   NGZ  =108)
  gives a total of  38115 points

 initial charge density was supplied:
 charge density of overlapping atoms calculated
 number of electron      11.0000000 magnetization       2.0000000
 keeping initial charge density in first step


--------------------------------------------------------------------------------------------------------


 Maximum index for augmentation-charges         1514 (set IRDMAX)


--------------------------------------------------------------------------------------------------------


 First call to EWALD:  gamma=   0.172
 Maximum number of real-space cells 3x 3x 3
 Maximum number of reciprocal cells 3x 3x 3

 FEWALD executed in parallel
    FEWALD:  cpu time    0.00: real time    0.00


----------------------------------------- Iteration    1(   1)  ---------------------------------------


    POTLOK:  cpu time    1.66: real time    1.67
    SETDIJ:  cpu time    0.02: real time    0.02
     EDDAV:  cpu time    0.63: real time    0.63
       DOS:  cpu time    0.00: real time    0.00
    --------------------------------------------
      LOOP:  cpu time    2.31: real time    2.32

 eigenvalue-minimisations  :    56
 total energy-change (2. order) : 0.6369975E+02  (-0.1970258E+03)
 number of electron      11.0000000 magnetization       2.0000000
 augmentation part       11.0000000 magnetization       2.0000000

 Free energy of the ion-electron system (eV)
  ---------------------------------------------------
  alpha Z        PSCENC =         0.45022818
  Ewald energy   TEWEN  =         2.64384396
  -1/2 Hartree   DENC   =      -597.16331798
  -exchange  EXHF       =         0.00000000
  -V(xc)+E(xc)   XCENC  =        44.53288530
  PAW double counting   =       551.20228741     -554.18101748
  entropy T*S    EENTRO =        -0.00668476
  eigenvalues    EBANDS =       -80.51667517
  atomic energy  EATOM  =       696.73819845
  ---------------------------------------------------
  free energy    TOTEN  =        63.69974790 eV

  energy without entropy =       63.70643266  energy(sigma->0) =       63.70309028


--------------------------------------------------------------------------------------------------------




----------------------------------------- Iteration    1(   2)  ---------------------------------------


     EDDAV:  cpu time    0.80: real time    0.80
       DOS:  cpu time    0.00: real time    0.00
    --------------------------------------------
      LOOP:  cpu time    0.80: real time    0.80

 eigenvalue-minimisations  :    76
 total energy-change (2. order) :-0.6012738E+02  (-0.5987785E+02)
 number of electron      11.0000000 magnetization       2.0000000
 augmentation part       11.0000000 magnetization       2.0000000

 Free energy of the ion-electron system (eV)
  ---------------------------------------------------
  alpha Z        PSCENC =         0.45022818
  Ewald energy   TEWEN  =         2.64384396
  -1/2 Hartree   DENC   =      -597.16331798
  -exchange  EXHF       =         0.00000000
  -V(xc)+E(xc)   XCENC  =        44.53288530
  PAW double counting   =       551.20228741     -554.18101748
  entropy T*S    EENTRO =        -0.00000000
  eigenvalues    EBANDS =      -140.65074132
  atomic energy  EATOM  =       696.73819845
  ---------------------------------------------------
  free energy    TOTEN  =         3.57236651 eV

  energy without entropy =        3.57236651  energy(sigma->0) =        3.57236651


--------------------------------------------------------------------------------------------------------




----------------------------------------- Iteration    1(   3)  ---------------------------------------


     EDDAV:  cpu time    0.75: real time    0.76
       DOS:  cpu time    0.00: real time    0.00
    --------------------------------------------
      LOOP:  cpu time    0.76: real time    0.76

 eigenvalue-minimisations  :    72
 total energy-change (2. order) :-0.1063435E+02  (-0.1056111E+02)
 number of electron      11.0000000 magnetization       2.0000000
 augmentation part       11.0000000 magnetization       2.0000000

 Free energy of the ion-electron system (eV)
  ---------------------------------------------------
  alpha Z        PSCENC =         0.45022818
  Ewald energy   TEWEN  =         2.64384396
  -1/2 Hartree   DENC   =      -597.16331798
  -exchange  EXHF       =         0.00000000
  -V(xc)+E(xc)   XCENC  =        44.53288530
  PAW double counting   =       551.20228741     -554.18101748
  entropy T*S    EENTRO =        -0.10124173
  eigenvalues    EBANDS =      -151.18385395
  atomic energy  EATOM  =       696.73819845
  ---------------------------------------------------
  free energy    TOTEN  =        -7.06198785 eV

  energy without entropy =       -6.96074612  energy(sigma->0) =       -7.01136699


--------------------------------------------------------------------------------------------------------




----------------------------------------- Iteration    1(   4)  ---------------------------------------


     EDDAV:  cpu time    0.58: real time    0.58
       DOS:  cpu time    0.00: real time    0.00
    --------------------------------------------
      LOOP:  cpu time    0.58: real time    0.58

 eigenvalue-minimisations  :    52
 total energy-change (2. order) :-0.1637141E+00  (-0.1527202E+00)
 number of electron      11.0000000 magnetization       2.0000000
 augmentation part       11.0000000 magnetization       2.0000000

 Free energy of the ion-electron system (eV)
  ---------------------------------------------------
  alpha Z        PSCENC =         0.45022818
  Ewald energy   TEWEN  =         2.64384396
  -1/2 Hartree   DENC   =      -597.16331798
  -exchange  EXHF       =         0.00000000
  -V(xc)+E(xc)   XCENC  =        44.53288530
  PAW double counting   =       551.20228741     -554.18101748
  entropy T*S    EENTRO =        -0.11282921
  eigenvalues    EBANDS =      -151.33598055
  atomic energy  EATOM  =       696.73819845
  ---------------------------------------------------
  free energy    TOTEN  =        -7.22570193 eV

  energy without entropy =       -7.11287272  energy(sigma->0) =       -7.16928732


--------------------------------------------------------------------------------------------------------




----------------------------------------- Iteration    1(   5)  ---------------------------------------


     EDDAV:  cpu time    0.68: real time    0.68
       DOS:  cpu time    0.00: real time    0.00
    CHARGE:  cpu time    0.11: real time    0.11
    MIXING:  cpu time    0.03: real time    0.03
    --------------------------------------------
      LOOP:  cpu time    0.82: real time    0.82

 eigenvalue-minimisations  :    64
 total energy-change (2. order) :-0.2910383E-02  (-0.2904221E-02)
 number of electron      11.0000001 magnetization       1.5781328
 augmentation part        0.6669167 magnetization       0.7372496

 Broyden mixing:
  rms(total) = 0.91793E+00    rms(broyden)= 0.91597E+00
  rms(prec ) = 0.12215E+01
  weight for this iteration     100.00

 Free energy of the ion-electron system (eV)
  ---------------------------------------------------
  alpha Z        PSCENC =         0.45022818
  Ewald energy   TEWEN  =         2.64384396
  -1/2 Hartree   DENC   =      -597.16331798
  -exchange  EXHF       =         0.00000000
  -V(xc)+E(xc)   XCENC  =        44.53288530
  PAW double counting   =       551.20228741     -554.18101748
  entropy T*S    EENTRO =        -0.11283767
  eigenvalues    EBANDS =      -151.33888248
  atomic energy  EATOM  =       696.73819845
  ---------------------------------------------------
  free energy    TOTEN  =        -7.22861231 eV

  energy without entropy =       -7.11577465  energy(sigma->0) =       -7.17219348


--------------------------------------------------------------------------------------------------------




----------------------------------------- Iteration    1(   6)  ---------------------------------------


    POTLOK:  cpu time    1.66: real time    1.67
    SETDIJ:  cpu time    0.02: real time    0.02
    EDDIAG:  cpu time    0.10: real time    0.10
  RMM-DIIS:  cpu time    0.48: real time    0.48
    ORTHCH:  cpu time    0.01: real time    0.01
       DOS:  cpu time    0.00: real time    0.00
    CHARGE:  cpu time    0.11: real time    0.11
    MIXING:  cpu time    0.03: real time    0.03
    --------------------------------------------
      LOOP:  cpu time    2.41: real time    2.41

 eigenvalue-minimisations  :    46
 total energy-change (2. order) :-0.3927900E+01  (-0.7173826E+00)
 number of electron      10.9999999 magnetization       1.5152192
 augmentation part        0.4279345 magnetization       0.7114748

 Broyden mixing:
  rms(total) = 0.23402E+01    rms(broyden)= 0.23383E+01
  rms(prec ) = 0.33508E+01
  weight for this iteration     100.00

 eigenvalues of (default mixing * dielectric matrix)
  average eigenvalue GAMMA=   0.3106
  0.3106

 Free energy of the ion-electron system (eV)
  ---------------------------------------------------
  alpha Z        PSCENC =         0.45022818
  Ewald energy   TEWEN  =         2.64384396
  -1/2 Hartree   DENC   =      -604.13397257
  -exchange  EXHF       =         0.00000000
  -V(xc)+E(xc)   XCENC  =        46.15658332
  PAW double counting   =       580.88318699     -583.91619246
  entropy T*S    EENTRO =        -0.11284767
  eigenvalues    EBANDS =      -149.86554079
  atomic energy  EATOM  =       696.73819845
  ---------------------------------------------------
  free energy    TOTEN  =       -11.15651260 eV

  energy without entropy =      -11.04366492  energy(sigma->0) =      -11.10008876


--------------------------------------------------------------------------------------------------------




----------------------------------------- Iteration    1(   7)  ---------------------------------------


    POTLOK:  cpu time    1.67: real time    1.67
    SETDIJ:  cpu time    0.01: real time    0.02
    EDDIAG:  cpu time    0.10: real time    0.10
  RMM-DIIS:  cpu time    0.48: real time    0.47
    ORTHCH:  cpu time    0.00: real time    0.01
       DOS:  cpu time    0.00: real time    0.00
    CHARGE:  cpu time    0.11: real time    0.11
    MIXING:  cpu time    0.03: real time    0.03
    --------------------------------------------
      LOOP:  cpu time    2.40: real time    2.40

 eigenvalue-minimisations  :    46
 total energy-change (2. order) : 0.5472480E+01  (-0.2368738E+00)
 number of electron      11.0000002 magnetization       1.3185768
 augmentation part        0.6031314 magnetization       0.4540374

 Broyden mixing:
  rms(total) = 0.30435E+00    rms(broyden)= 0.29645E+00
  rms(prec ) = 0.35265E+00
  weight for this iteration     100.00

 eigenvalues of (default mixing * dielectric matrix)
  average eigenvalue GAMMA=   0.5183
  0.8117  0.2248

 Free energy of the ion-electron system (eV)
  ---------------------------------------------------
  alpha Z        PSCENC =         0.45022818
  Ewald energy   TEWEN  =         2.64384396
  -1/2 Hartree   DENC   =      -598.35551806
  -exchange  EXHF       =         0.00000000
  -V(xc)+E(xc)   XCENC  =        45.31960716
  PAW double counting   =       571.52074441     -574.45514912
  entropy T*S    EENTRO =        -0.11283447
  eigenvalues    EBANDS =      -149.43315291
  atomic energy  EATOM  =       696.73819845
  ---------------------------------------------------
  free energy    TOTEN  =        -5.68403240 eV

  energy without entropy =       -5.57119793  energy(sigma->0) =       -5.62761516


--------------------------------------------------------------------------------------------------------




----------------------------------------- Iteration    1(   8)  ---------------------------------------


    POTLOK:  cpu time    1.67: real time    1.67
    SETDIJ:  cpu time    0.01: real time    0.02
    EDDIAG:  cpu time    0.10: real time    0.10
  RMM-DIIS:  cpu time    0.48: real time    0.48
    ORTHCH:  cpu time    0.01: real time    0.01
       DOS:  cpu time    0.00: real time    0.00
    CHARGE:  cpu time    0.10: real time    0.11
    MIXING:  cpu time    0.04: real time    0.03
    --------------------------------------------
      LOOP:  cpu time    2.42: real time    2.42

 eigenvalue-minimisations  :    47
 total energy-change (2. order) :-0.5261035E+00  (-0.1862166E-01)
 number of electron      11.0000001 magnetization       1.1007091
 augmentation part        0.6003203 magnetization       0.2197570

 Broyden mixing:
  rms(total) = 0.22339E+00    rms(broyden)= 0.22246E+00
  rms(prec ) = 0.24818E+00
  weight for this iteration     100.00

 eigenvalues of (default mixing * dielectric matrix)
  average eigenvalue GAMMA=   0.7354
  0.2475  1.0499  0.9088

 Free energy of the ion-electron system (eV)
  ---------------------------------------------------
  alpha Z        PSCENC =         0.45022818
  Ewald energy   TEWEN  =         2.64384396
  -1/2 Hartree   DENC   =      -598.34078624
  -exchange  EXHF       =         0.00000000
  -V(xc)+E(xc)   XCENC  =        45.01611227
  PAW double counting   =       578.26502583     -581.14811884
  entropy T*S    EENTRO =        -0.11282456
  eigenvalues    EBANDS =      -149.72181495
  atomic energy  EATOM  =       696.73819845
  ---------------------------------------------------
  free energy    TOTEN  =        -6.21013591 eV

  energy without entropy =       -6.09731135  energy(sigma->0) =       -6.15372363


--------------------------------------------------------------------------------------------------------




----------------------------------------- Iteration    1(   9)  ---------------------------------------


    POTLOK:  cpu time    1.66: real time    1.67
    SETDIJ:  cpu time    0.02: real time    0.02
    EDDIAG:  cpu time    0.10: real time    0.10
  RMM-DIIS:  cpu time    0.51: real time    0.51
    ORTHCH:  cpu time    0.00: real time    0.01
       DOS:  cpu time    0.00: real time    0.00
    CHARGE:  cpu time    0.11: real time    0.11
    MIXING:  cpu time    0.04: real time    0.04
    --------------------------------------------
      LOOP:  cpu time    2.44: real time    2.44

 eigenvalue-minimisations  :    49
 total energy-change (2. order) :-0.4032846E+00  (-0.2087194E-01)
 number of electron      11.0000000 magnetization       1.0352286
 augmentation part        0.6062011 magnetization       0.1225532

 Broyden mixing:
  rms(total) = 0.17625E+00    rms(broyden)= 0.17509E+00
  rms(prec ) = 0.18703E+00
  weight for this iteration     100.00

 eigenvalues of (default mixing * dielectric matrix)
  average eigenvalue GAMMA=   1.1328
  0.2422  1.9271  1.5913  0.7707

 Free energy of the ion-electron system (eV)
  ---------------------------------------------------
  alpha Z        PSCENC =         0.45022818
  Ewald energy   TEWEN  =         2.64384396
  -1/2 Hartree   DENC   =      -598.33448731
  -exchange  EXHF       =         0.00000000
  -V(xc)+E(xc)   XCENC  =        44.92966178
  PAW double counting   =       584.75023673     -587.55725485
  entropy T*S    EENTRO =        -0.11277076
  eigenvalues    EBANDS =      -150.12107672
  atomic energy  EATOM  =       696.73819845
  ---------------------------------------------------
  free energy    TOTEN  =        -6.61342055 eV

  energy without entropy =       -6.50064979  energy(sigma->0) =       -6.55703517


--------------------------------------------------------------------------------------------------------




----------------------------------------- Iteration    1(  10)  ---------------------------------------


    POTLOK:  cpu time    1.67: real time    1.67
    SETDIJ:  cpu time    0.01: real time    0.02
    EDDIAG:  cpu time    0.10: real time    0.10
  RMM-DIIS:  cpu time    0.50: real time    0.50
    ORTHCH:  cpu time    0.01: real time    0.01
       DOS:  cpu time    0.00: real time    0.00
    CHARGE:  cpu time    0.11: real time    0.11
    MIXING:  cpu time    0.04: real time    0.04
    --------------------------------------------
      LOOP:  cpu time    2.44: real time    2.44

 eigenvalue-minimisations  :    49
 total energy-change (2. order) :-0.8782732E-01  (-0.8541888E-02)
 number of electron      10.9999999 magnetization       1.0187285
 augmentation part        0.6114566 magnetization       0.0807692

 Broyden mixing:
  rms(total) = 0.91261E-01    rms(broyden)= 0.90324E-01
  rms(prec ) = 0.10408E+00
  weight for this iteration     100.00

 eigenvalues of (default mixing * dielectric matrix)
  average eigenvalue GAMMA=   1.2577
  2.1939  2.1939  0.2426  0.9564  0.7017

 Free energy of the ion-electron system (eV)
  ---------------------------------------------------
  alpha Z        PSCENC =         0.45022818
  Ewald energy   TEWEN  =         2.64384396
  -1/2 Hartree   DENC   =      -599.12275010
  -exchange  EXHF       =         0.00000000
  -V(xc)+E(xc)   XCENC  =        45.20775922
  PAW double counting   =       586.86703183     -589.65116039
  entropy T*S    EENTRO =        -0.11240776
  eigenvalues    EBANDS =      -149.72199125
  atomic energy  EATOM  =       696.73819845
  ---------------------------------------------------
  free energy    TOTEN  =        -6.70124786 eV

  energy without entropy =       -6.58884010  energy(sigma->0) =       -6.64504398


--------------------------------------------------------------------------------------------------------




----------------------------------------- Iteration    1(  11)  ---------------------------------------


    POTLOK:  cpu time    1.67: real time    1.67
    SETDIJ:  cpu time    0.02: real time    0.02
    EDDIAG:  cpu time    0.10: real time    0.10
  RMM-DIIS:  cpu time    0.49: real time    0.50
    ORTHCH:  cpu time    0.01: real time    0.01
       DOS:  cpu time    0.00: real time    0.00
    CHARGE:  cpu time    0.11: real time    0.11
    MIXING:  cpu time    0.04: real time    0.04
    --------------------------------------------
      LOOP:  cpu time    2.44: real time    2.44

 eigenvalue-minimisations  :    48
 total energy-change (2. order) :-0.1905672E+00  (-0.4106632E-02)
 number of electron      10.9999997 magnetization       1.0180425
 augmentation part        0.6091862 magnetization       0.0700340

 Broyden mixing:
  rms(total) = 0.74213E-01    rms(broyden)= 0.72097E-01
  rms(prec ) = 0.78825E-01
  weight for this iteration     100.00

 eigenvalues of (default mixing * dielectric matrix)
  average eigenvalue GAMMA=   1.0719
  2.1968  2.1968  0.9584  0.7027  0.2426  0.1337

 Free energy of the ion-electron system (eV)
  ---------------------------------------------------
  alpha Z        PSCENC =         0.45022818
  Ewald energy   TEWEN  =         2.64384396
  -1/2 Hartree   DENC   =      -600.08528364
  -exchange  EXHF       =         0.00000000
  -V(xc)+E(xc)   XCENC  =        45.26266568
  PAW double counting   =       588.60934607     -591.40361487
  entropy T*S    EENTRO =        -0.10871782
  eigenvalues    EBANDS =      -148.99848107
  atomic energy  EATOM  =       696.73819845
  ---------------------------------------------------
  free energy    TOTEN  =        -6.89181507 eV

  energy without entropy =       -6.78309725  energy(sigma->0) =       -6.83745616


--------------------------------------------------------------------------------------------------------




----------------------------------------- Iteration    1(  12)  ---------------------------------------


    POTLOK:  cpu time    1.67: real time    1.67
    SETDIJ:  cpu time    0.01: real time    0.02
    EDDIAG:  cpu time    0.10: real time    0.10
  RMM-DIIS:  cpu time    0.53: real time    0.53
    ORTHCH:  cpu time    0.01: real time    0.01
       DOS:  cpu time    0.00: real time    0.00
    CHARGE:  cpu time    0.11: real time    0.11
    MIXING:  cpu time    0.04: real time    0.05
    --------------------------------------------
      LOOP:  cpu time    2.48: real time    2.48

 eigenvalue-minimisations  :    52
 total energy-change (2. order) : 0.1961295E-02  (-0.4018957E-03)
 number of electron      10.9999996 magnetization       1.0095373
 augmentation part        0.6080274 magnetization       0.0615668

 Broyden mixing:
  rms(total) = 0.80454E-01    rms(broyden)= 0.80187E-01
  rms(prec ) = 0.87034E-01
  weight for this iteration     100.00

 eigenvalues of (default mixing * dielectric matrix)
  average eigenvalue GAMMA=   1.1066
  2.1569  2.1569  1.2435  0.2426  0.8149  0.6734  0.4578

 Free energy of the ion-electron system (eV)
  ---------------------------------------------------
  alpha Z        PSCENC =         0.45022818
  Ewald energy   TEWEN  =         2.64384396
  -1/2 Hartree   DENC   =      -600.09064682
  -exchange  EXHF       =         0.00000000
  -V(xc)+E(xc)   XCENC  =        45.26713168
  PAW double counting   =       588.65654948     -591.45068870
  entropy T*S    EENTRO =        -0.10760141
  eigenvalues    EBANDS =      -148.99686860
  atomic energy  EATOM  =       696.73819845
  ---------------------------------------------------
  free energy    TOTEN  =        -6.88985377 eV

  energy without entropy =       -6.78225237  energy(sigma->0) =       -6.83605307


--------------------------------------------------------------------------------------------------------




----------------------------------------- Iteration    1(  13)  ---------------------------------------


    POTLOK:  cpu time    1.67: real time    1.67
    SETDIJ:  cpu time    0.01: real time    0.02
    EDDIAG:  cpu time    0.10: real time    0.10
  RMM-DIIS:  cpu time    0.48: real time    0.48
    ORTHCH:  cpu time    0.01: real time    0.01
       DOS:  cpu time    0.00: real time    0.00
    CHARGE:  cpu time    0.11: real time    0.11
    MIXING:  cpu time    0.05: real time    0.05
    --------------------------------------------
      LOOP:  cpu time    2.43: real time    2.43

 eigenvalue-minimisations  :    47
 total energy-change (2. order) :-0.9812088E-01  (-0.1593626E-02)
 number of electron      10.9999999 magnetization       0.9976419
 augmentation part        0.6039070 magnetization       0.0495960

 Broyden mixing:
  rms(total) = 0.41310E-01    rms(broyden)= 0.37274E-01
  rms(prec ) = 0.42128E-01
  weight for this iteration     100.00

 eigenvalues of (default mixing * dielectric matrix)
  average eigenvalue GAMMA=   1.0979
  2.2457  2.2457  0.2426  1.1961  1.0493  0.7142  0.5840  0.5056

 Free energy of the ion-electron system (eV)
  ---------------------------------------------------
  alpha Z        PSCENC =         0.45022818
  Ewald energy   TEWEN  =         2.64384396
  -1/2 Hartree   DENC   =      -600.85534876
  -exchange  EXHF       =         0.00000000
  -V(xc)+E(xc)   XCENC  =        45.22265616
  PAW double counting   =       590.07658371     -592.88347040
  entropy T*S    EENTRO =        -0.11244178
  eigenvalues    EBANDS =      -148.26822416
  atomic energy  EATOM  =       696.73819845
  ---------------------------------------------------
  free energy    TOTEN  =        -6.98797465 eV

  energy without entropy =       -6.87553287  energy(sigma->0) =       -6.93175376


--------------------------------------------------------------------------------------------------------




----------------------------------------- Iteration    1(  14)  ---------------------------------------


    POTLOK:  cpu time    1.66: real time    1.66
    SETDIJ:  cpu time    0.02: real time    0.02
    EDDIAG:  cpu time    0.10: real time    0.10
  RMM-DIIS:  cpu time    0.50: real time    0.50
    ORTHCH:  cpu time    0.00: real time    0.01
       DOS:  cpu time    0.00: real time    0.00
    CHARGE:  cpu time    0.11: real time    0.11
    MIXING:  cpu time    0.05: real time    0.05
    --------------------------------------------
      LOOP:  cpu time    2.44: real time    2.45

 eigenvalue-minimisations  :    48
 total energy-change (2. order) :-0.8074289E-01  (-0.5165649E-03)
 number of electron      11.0000000 magnetization       1.0007803
 augmentation part        0.6051300 magnetization       0.0489213

 Broyden mixing:
  rms(total) = 0.25011E-01    rms(broyden)= 0.23505E-01
  rms(prec ) = 0.28823E-01
  weight for this iteration     100.00

 eigenvalues of (default mixing * dielectric matrix)
  average eigenvalue GAMMA=   1.0155
  2.1817  2.1817  0.5086  1.2548  1.0226  0.2426  0.7109  0.5183  0.5183

 Free energy of the ion-electron system (eV)
  ---------------------------------------------------
  alpha Z        PSCENC =         0.45022818
  Ewald energy   TEWEN  =         2.64384396
  -1/2 Hartree   DENC   =      -600.84419436
  -exchange  EXHF       =         0.00000000
  -V(xc)+E(xc)   XCENC  =        45.21261352
  PAW double counting   =       590.44602661     -593.24600316
  entropy T*S    EENTRO =        -0.11279570
  eigenvalues    EBANDS =      -148.35663504
  atomic energy  EATOM  =       696.73819845
  ---------------------------------------------------
  free energy    TOTEN  =        -7.06871754 eV

  energy without entropy =       -6.95592184  energy(sigma->0) =       -7.01231969


--------------------------------------------------------------------------------------------------------




----------------------------------------- Iteration    1(  15)  ---------------------------------------


    POTLOK:  cpu time    1.66: real time    1.66
    SETDIJ:  cpu time    0.01: real time    0.02
    EDDIAG:  cpu time    0.10: real time    0.10
  RMM-DIIS:  cpu time    0.49: real time    0.49
    ORTHCH:  cpu time    0.00: real time    0.01
       DOS:  cpu time    0.00: real time    0.00
    CHARGE:  cpu time    0.11: real time    0.11
    MIXING:  cpu time    0.06: real time    0.06
    --------------------------------------------
      LOOP:  cpu time    2.44: real time    2.44

 eigenvalue-minimisations  :    47
 total energy-change (2. order) :-0.1890150E-01  (-0.1231259E-03)
 number of electron      11.0000000 magnetization       1.0042790
 augmentation part        0.6052436 magnetization       0.0540540

 Broyden mixing:
  rms(total) = 0.17357E-01    rms(broyden)= 0.17229E-01
  rms(prec ) = 0.21465E-01
  weight for this iteration     100.00

 eigenvalues of (default mixing * dielectric matrix)
  average eigenvalue GAMMA=   1.1772
  2.5663  2.5663  1.4438  1.4438  0.5105  0.2426  1.0340  0.7544  0.6373  0.5725

 Free energy of the ion-electron system (eV)
  ---------------------------------------------------
  alpha Z        PSCENC =         0.45022818
  Ewald energy   TEWEN  =         2.64384396
  -1/2 Hartree   DENC   =      -600.48697588
  -exchange  EXHF       =         0.00000000
  -V(xc)+E(xc)   XCENC  =        45.14467137
  PAW double counting   =       590.00951533     -592.80730579
  entropy T*S    EENTRO =        -0.11280757
  eigenvalues    EBANDS =      -148.66698709
  atomic energy  EATOM  =       696.73819845
  ---------------------------------------------------
  free energy    TOTEN  =        -7.08761904 eV

  energy without entropy =       -6.97481146  energy(sigma->0) =       -7.03121525


--------------------------------------------------------------------------------------------------------




----------------------------------------- Iteration    1(  16)  ---------------------------------------


    POTLOK:  cpu time    1.66: real time    1.66
    SETDIJ:  cpu time    0.02: real time    0.02
    EDDIAG:  cpu time    0.10: real time    0.10
  RMM-DIIS:  cpu time    0.50: real time    0.50
    ORTHCH:  cpu time    0.00: real time    0.01
       DOS:  cpu time    0.00: real time    0.00
    CHARGE:  cpu time    0.10: real time    0.11
    MIXING:  cpu time    0.06: real time    0.06
    --------------------------------------------
      LOOP:  cpu time    2.45: real time    2.45

 eigenvalue-minimisations  :    49
 total energy-change (2. order) :-0.8266683E-01  (-0.8909573E-03)
 number of electron      11.0000000 magnetization       1.0028847
 augmentation part        0.6076609 magnetization       0.0516100

 Broyden mixing:
  rms(total) = 0.94092E-02    rms(broyden)= 0.93553E-02
  rms(prec ) = 0.11559E-01
  weight for this iteration     100.00

 eigenvalues of (default mixing * dielectric matrix)
  average eigenvalue GAMMA=   1.1346
  2.6063  2.6063  0.5109  1.3510  1.3510  0.2426  1.0665  0.7580  0.6743  0.6743
  0.6391

 Free energy of the ion-electron system (eV)
  ---------------------------------------------------
  alpha Z        PSCENC =         0.45022818
  Ewald energy   TEWEN  =         2.64384396
  -1/2 Hartree   DENC   =      -599.75264143
  -exchange  EXHF       =         0.00000000
  -V(xc)+E(xc)   XCENC  =        45.03013032
  PAW double counting   =       589.08617744     -591.87513648
  entropy T*S    EENTRO =        -0.11280617
  eigenvalues    EBANDS =      -149.37828013
  atomic energy  EATOM  =       696.73819845
  ---------------------------------------------------
  free energy    TOTEN  =        -7.17028587 eV

  energy without entropy =       -7.05747970  energy(sigma->0) =       -7.11388278


--------------------------------------------------------------------------------------------------------




----------------------------------------- Iteration    1(  17)  ---------------------------------------


    POTLOK:  cpu time    1.65: real time    1.65
    SETDIJ:  cpu time    0.02: real time    0.02
    EDDIAG:  cpu time    0.10: real time    0.10
  RMM-DIIS:  cpu time    0.44: real time    0.45
    ORTHCH:  cpu time    0.01: real time    0.01
       DOS:  cpu time    0.00: real time    0.00
    CHARGE:  cpu time    0.11: real time    0.11
    MIXING:  cpu time    0.06: real time    0.06
    --------------------------------------------
      LOOP:  cpu time    2.39: real time    2.39

 eigenvalue-minimisations  :    43
 total energy-change (2. order) :-0.3694251E-02  (-0.5134987E-04)
 number of electron      11.0000000 magnetization       0.9984402
 augmentation part        0.6074228 magnetization       0.0468743

 Broyden mixing:
  rms(total) = 0.68521E-02    rms(broyden)= 0.68447E-02
  rms(prec ) = 0.86527E-02
  weight for this iteration     100.00

 eigenvalues of (default mixing * dielectric matrix)
  average eigenvalue GAMMA=   1.1581
  2.6295  2.6295  0.5110  1.3798  1.3798  0.2426  1.1607  1.1607  0.8217  0.7308
  0.6255  0.6255

 Free energy of the ion-electron system (eV)
  ---------------------------------------------------
  alpha Z        PSCENC =         0.45022818
  Ewald energy   TEWEN  =         2.64384396
  -1/2 Hartree   DENC   =      -599.85523777
  -exchange  EXHF       =         0.00000000
  -V(xc)+E(xc)   XCENC  =        45.04006135
  PAW double counting   =       589.24708626     -592.03880936
  entropy T*S    EENTRO =        -0.11279493
  eigenvalues    EBANDS =      -149.28655626
  atomic energy  EATOM  =       696.73819845
  ---------------------------------------------------
  free energy    TOTEN  =        -7.17398012 eV

  energy without entropy =       -7.06118519  energy(sigma->0) =       -7.11758265


--------------------------------------------------------------------------------------------------------




----------------------------------------- Iteration    1(  18)  ---------------------------------------


    POTLOK:  cpu time    1.64: real time    1.65
    SETDIJ:  cpu time    0.02: real time    0.02
    EDDIAG:  cpu time    0.10: real time    0.10
  RMM-DIIS:  cpu time    0.46: real time    0.46
    ORTHCH:  cpu time    0.00: real time    0.01
       DOS:  cpu time    0.00: real time    0.00
    CHARGE:  cpu time    0.11: real time    0.11
    MIXING:  cpu time    0.07: real time    0.07
    --------------------------------------------
      LOOP:  cpu time    2.41: real time    2.41

 eigenvalue-minimisations  :    45
 total energy-change (2. order) :-0.9289895E-03  (-0.9080929E-04)
 number of electron      11.0000000 magnetization       0.9980841
 augmentation part        0.6069335 magnetization       0.0456669

 Broyden mixing:
  rms(total) = 0.83880E-02    rms(broyden)= 0.83043E-02
  rms(prec ) = 0.94481E-02
  weight for this iteration     100.00

 eigenvalues of (default mixing * dielectric matrix)
  average eigenvalue GAMMA=   1.2052
  2.7601  2.7601  1.9041  0.5111  1.3249  1.3249  0.2426  1.1613  1.0082  0.7758
  0.6789  0.6077  0.6077

 Free energy of the ion-electron system (eV)
  ---------------------------------------------------
  alpha Z        PSCENC =         0.45022818
  Ewald energy   TEWEN  =         2.64384396
  -1/2 Hartree   DENC   =      -600.03360811
  -exchange  EXHF       =         0.00000000
  -V(xc)+E(xc)   XCENC  =        45.06908135
  PAW double counting   =       589.50840028     -592.30095224
  entropy T*S    EENTRO =        -0.11282706
  eigenvalues    EBANDS =      -149.13727390
  atomic energy  EATOM  =       696.73819845
  ---------------------------------------------------
  free energy    TOTEN  =        -7.17490911 eV

  energy without entropy =       -7.06208205  energy(sigma->0) =       -7.11849558


--------------------------------------------------------------------------------------------------------




----------------------------------------- Iteration    1(  19)  ---------------------------------------


    POTLOK:  cpu time    1.65: real time    1.65
    SETDIJ:  cpu time    0.02: real time    0.02
    EDDIAG:  cpu time    0.10: real time    0.10
  RMM-DIIS:  cpu time    0.38: real time    0.39
    ORTHCH:  cpu time    0.01: real time    0.01
       DOS:  cpu time    0.00: real time    0.00
    CHARGE:  cpu time    0.11: real time    0.11
    MIXING:  cpu time    0.07: real time    0.07
    --------------------------------------------
      LOOP:  cpu time    2.34: real time    2.34

 eigenvalue-minimisations  :    36
 total energy-change (2. order) :-0.2816297E-03  (-0.1489419E-04)
 number of electron      11.0000000 magnetization       0.9991673
 augmentation part        0.6069921 magnetization       0.0469449

 Broyden mixing:
  rms(total) = 0.48583E-02    rms(broyden)= 0.46671E-02
  rms(prec ) = 0.55139E-02
  weight for this iteration     100.00

 eigenvalues of (default mixing * dielectric matrix)
  average eigenvalue GAMMA=   1.2434
  3.1699  2.3042  2.3042  0.5111  1.7290  1.2769  1.2769  0.2426  1.1073  0.8687
  0.7192  0.6420  0.6420  0.6136

 Free energy of the ion-electron system (eV)
  ---------------------------------------------------
  alpha Z        PSCENC =         0.45022818
  Ewald energy   TEWEN  =         2.64384396
  -1/2 Hartree   DENC   =      -599.90926118
  -exchange  EXHF       =         0.00000000
  -V(xc)+E(xc)   XCENC  =        45.05682995
  PAW double counting   =       589.39237622     -592.18411722
  entropy T*S    EENTRO =        -0.11283782
  eigenvalues    EBANDS =      -149.25045128
  atomic energy  EATOM  =       696.73819845
  ---------------------------------------------------
  free energy    TOTEN  =        -7.17519074 eV

  energy without entropy =       -7.06235292  energy(sigma->0) =       -7.11877183


--------------------------------------------------------------------------------------------------------




----------------------------------------- Iteration    1(  20)  ---------------------------------------


    POTLOK:  cpu time    1.65: real time    1.65
    SETDIJ:  cpu time    0.02: real time    0.02
    EDDIAG:  cpu time    0.10: real time    0.10
  RMM-DIIS:  cpu time    0.40: real time    0.40
    ORTHCH:  cpu time    0.01: real time    0.01
       DOS:  cpu time    0.00: real time    0.00
    CHARGE:  cpu time    0.10: real time    0.11
    MIXING:  cpu time    0.08: real time    0.08
    --------------------------------------------
      LOOP:  cpu time    2.36: real time    2.36

 eigenvalue-minimisations  :    38
 total energy-change (2. order) :-0.1079645E-02  (-0.3401231E-04)
 number of electron      11.0000000 magnetization       1.0000199
 augmentation part        0.6074328 magnetization       0.0479978

 Broyden mixing:
  rms(total) = 0.17678E-02    rms(broyden)= 0.13153E-02
  rms(prec ) = 0.18994E-02
  weight for this iteration     100.00
  WARNING: grid for Broyden might be to small

 eigenvalues of (default mixing * dielectric matrix)
  average eigenvalue GAMMA=   1.3445
  4.4122  2.4924  2.4924  1.9935  0.5111  1.3212  1.3212  0.2426  1.0129  1.0129
  0.7199  0.7199  0.6922  0.6111  0.6111

 Free energy of the ion-electron system (eV)
  ---------------------------------------------------
  alpha Z        PSCENC =         0.45022818
  Ewald energy   TEWEN  =         2.64384396
  -1/2 Hartree   DENC   =      -599.72462692
  -exchange  EXHF       =         0.00000000
  -V(xc)+E(xc)   XCENC  =        45.04032243
  PAW double counting   =       589.24401179     -592.03303573
  entropy T*S    EENTRO =        -0.11283368
  eigenvalues    EBANDS =      -149.42237884
  atomic energy  EATOM  =       696.73819845
  ---------------------------------------------------
  free energy    TOTEN  =        -7.17627038 eV

  energy without entropy =       -7.06343670  energy(sigma->0) =       -7.11985354


--------------------------------------------------------------------------------------------------------




----------------------------------------- Iteration    1(  21)  ---------------------------------------


    POTLOK:  cpu time    1.65: real time    1.65
    SETDIJ:  cpu time    0.01: real time    0.02
    EDDIAG:  cpu time    0.10: real time    0.10
  RMM-DIIS:  cpu time    0.39: real time    0.39
    ORTHCH:  cpu time    0.00: real time    0.01
       DOS:  cpu time    0.00: real time    0.00
    CHARGE:  cpu time    0.11: real time    0.11
    MIXING:  cpu time    0.08: real time    0.08
    --------------------------------------------
      LOOP:  cpu time    2.35: real time    2.35

 eigenvalue-minimisations  :    36
 total energy-change (2. order) :-0.5359443E-03  (-0.1227884E-04)
 number of electron      11.0000000 magnetization       1.0000075
 augmentation part        0.6074396 magnetization       0.0481644

 Broyden mixing:
  rms(total) = 0.22451E-02    rms(broyden)= 0.21644E-02
  rms(prec ) = 0.25335E-02
  weight for this iteration     100.00

 eigenvalues of (default mixing * dielectric matrix)
  average eigenvalue GAMMA=   1.4326
  5.9537  2.6723  2.6723  1.8608  0.5111  1.2942  1.2942  0.2426  1.2190  1.0028
  0.8230  0.8230  0.6847  0.6386  0.6386  0.5902

 Free energy of the ion-electron system (eV)
  ---------------------------------------------------
  alpha Z        PSCENC =         0.45022818
  Ewald energy   TEWEN  =         2.64384396
  -1/2 Hartree   DENC   =      -599.68120813
  -exchange  EXHF       =         0.00000000
  -V(xc)+E(xc)   XCENC  =        45.03397411
  PAW double counting   =       589.24558585     -592.03468920
  entropy T*S    EENTRO =        -0.11282939
  eigenvalues    EBANDS =      -149.45991015
  atomic energy  EATOM  =       696.73819845
  ---------------------------------------------------
  free energy    TOTEN  =        -7.17680633 eV

  energy without entropy =       -7.06397694  energy(sigma->0) =       -7.12039163


--------------------------------------------------------------------------------------------------------




----------------------------------------- Iteration    1(  22)  ---------------------------------------


    POTLOK:  cpu time    1.65: real time    1.65
    SETDIJ:  cpu time    0.02: real time    0.02
    EDDIAG:  cpu time    0.10: real time    0.10
  RMM-DIIS:  cpu time    0.32: real time    0.32
    ORTHCH:  cpu time    0.01: real time    0.01
       DOS:  cpu time    0.00: real time    0.00
    --------------------------------------------
      LOOP:  cpu time    2.10: real time    2.10

 eigenvalue-minimisations  :    29
 total energy-change (2. order) :-0.7355958E-04  (-0.2236160E-05)
 number of electron      11.0000000 magnetization       1.0000075
 augmentation part        0.6074396 magnetization       0.0481644

 Free energy of the ion-electron system (eV)
  ---------------------------------------------------
  alpha Z        PSCENC =         0.45022818
  Ewald energy   TEWEN  =         2.64384396
  -1/2 Hartree   DENC   =      -599.71832694
  -exchange  EXHF       =         0.00000000
  -V(xc)+E(xc)   XCENC  =        45.03701512
  PAW double counting   =       589.28292191     -592.07242148
  entropy T*S    EENTRO =        -0.11282872
  eigenvalues    EBANDS =      -149.42551035
  atomic energy  EATOM  =       696.73819845
  ---------------------------------------------------
  free energy    TOTEN  =        -7.17687989 eV

  energy without entropy =       -7.06405116  energy(sigma->0) =       -7.12046552


--------------------------------------------------------------------------------------------------------




 average (electrostatic) potential at core
  the test charge radii are     0.7089  0.7215
  (the norm of the test charge is              1.0000)
       1 -77.0512       2 -82.6502
 
 
 
 E-fermi :  -7.0002     XC(G=0):  -0.6371     alpha+bet : -0.1481


 spin component 1

 k-point   1 :       0.0000    0.0000    0.0000
  band No.  band energies     occupation 
      1     -23.5411      1.00000
      2     -19.7473      1.00000
      3     -10.1974      1.00000
      4      -9.4706      1.00000
      5      -9.4692      1.00000
      6      -7.0020      0.50509
      7      -6.9984      0.49491
      8      -4.3776      0.00000
      9      -0.3467      0.00000
     10       1.0505      0.00000

 spin component 2

 k-point   1 :       0.0000    0.0000    0.0000
  band No.  band energies     occupation 
      1     -24.3696      1.00000
      2     -17.4123      1.00000
      3     -10.1029      1.00000
      4      -9.0661      1.00000
      5      -9.0487      1.00000
      6      -5.3798      0.00000
      7      -5.3756      0.00000
      8      -3.8937      0.00000
      9      -0.2748      0.00000
     10       1.0501      0.00000


--------------------------------------------------------------------------------------------------------


 soft charge-density along one line, spin component           1
         0         1         2         3         4         5         6         7         8         9
 total charge-density along one line
 
 soft charge-density along one line, spin component           2
         0         1         2         3         4         5         6         7         8         9
 total charge-density along one line
 
 pseudopotential strength for first ion, spin component:           1
 14.632  17.585  -0.000   0.003  -0.000  -0.000  -0.001  -0.000
 17.585  21.136  -0.000   0.003  -0.000  -0.000  -0.001  -0.000
 -0.000  -0.000  -7.956  -0.000   0.000 -11.160  -0.000   0.000
  0.003   0.003  -0.000  -7.861   0.000  -0.000 -11.007   0.000
 -0.000  -0.000   0.000   0.000  -7.956   0.000   0.000 -11.160
 -0.000  -0.000 -11.160  -0.000   0.000 -15.026  -0.000   0.000
 -0.001  -0.001  -0.000 -11.007   0.000  -0.000 -14.780   0.000
 -0.000  -0.000   0.000   0.000 -11.160   0.000   0.000 -15.025
 pseudopotential strength for first ion, spin component:           2
 13.880  16.665  -0.000  -0.005   0.000  -0.000  -0.010   0.000
 16.665  20.012  -0.000  -0.007   0.000  -0.000  -0.012   0.000
 -0.000  -0.000  -7.503  -0.000   0.000 -10.444  -0.000   0.000
 -0.005  -0.007  -0.000  -7.683  -0.000  -0.000 -10.733  -0.000
  0.000   0.000   0.000  -0.000  -7.503   0.000  -0.000 -10.444
 -0.000  -0.000 -10.444  -0.000   0.000 -13.895  -0.000   0.000
 -0.010  -0.012  -0.000 -10.733  -0.000  -0.000 -14.354  -0.000
  0.000   0.000   0.000  -0.000 -10.444   0.000  -0.000 -13.895
 total augmentation occupancy for first ion, spin component:           1
  2.449  -0.304   0.000   0.297   0.000   0.000  -0.071   0.000
 -0.304   0.209   0.000  -0.395   0.000   0.000   0.067   0.000
  0.000   0.000   0.948   0.000   0.000   0.023   0.000   0.000
  0.297  -0.395   0.000   1.210   0.000   0.000  -0.130   0.000
  0.000   0.000   0.000   0.000   0.949   0.000   0.000   0.024
  0.000   0.000   0.023   0.000   0.000   0.005   0.000   0.000
 -0.071   0.067   0.000  -0.130   0.000   0.000   0.023   0.000
  0.000   0.000   0.000   0.000   0.024   0.000   0.000   0.005
 total augmentation occupancy for first ion, spin component:           2
 -0.304   0.167   0.000  -0.000   0.000   0.000   0.013   0.000
  0.167  -0.037   0.000   0.024   0.000   0.000  -0.012   0.000
  0.000   0.000   0.766   0.000   0.000   0.048   0.000   0.000
 -0.000   0.024   0.000   0.183   0.000   0.000   0.022   0.000
  0.000   0.000   0.000   0.000   0.765   0.000   0.000   0.049
  0.000   0.000   0.048   0.000   0.000   0.001   0.000   0.000
  0.013  -0.012   0.000   0.022   0.000   0.000  -0.005   0.000
  0.000   0.000   0.000   0.000   0.049   0.000   0.000   0.001


------------------------ aborting loop because EDIFF is reached ----------------------------------------


    CHARGE:  cpu time    0.11: real time    0.11
    FORLOC:  cpu time    0.06: real time    0.05
    FORNL :  cpu time    0.10: real time    0.11
    STRESS:  cpu time    0.36: real time    0.36
    FORCOR:  cpu time    1.72: real time    1.73
    FORHAR:  cpu time    0.18: real time    0.18
    MIXING:  cpu time    0.09: real time    0.09

  FORCE on cell =-STRESS in cart. coord.  units (eV):
  Direction    XX          YY          ZZ          XY          YZ          ZX
  --------------------------------------------------------------------------------------
  Alpha Z     0.45023     0.45023     0.45023
  Ewald     -76.70793   -81.32236   160.67413     0.00000     0.00000    -0.00000
  Hartree   151.94050   147.29700   300.56526    -0.00000    -0.00000    -0.00000
  E(xc)     -48.48846   -48.49081   -47.86732    -0.00000    -0.00000    -0.00000
  Local    -229.54355  -220.01548  -603.67122     0.00000     0.00000     0.00000
  n-local   -27.40128   -27.31351   -24.91864     0.00000     0.00001    -0.00000
  augment     6.54443     6.51356     5.41044     0.00000    -0.00000    -0.00000
  Kinetic   221.97028   221.69869   196.67965    -0.00000    -0.00007     0.00000
  Fock        0.00000     0.00000     0.00000     0.00000     0.00000     0.00000
  -------------------------------------------------------------------------------------
  Total      -1.23579    -1.18269   -12.67746     0.00000     0.00000     0.00000
  in kB      -1.81262    -1.73474   -18.59495     0.00000     0.00000     0.00000
  external pressure =       -7.38 kB  Pullay stress =        0.00 kB


 VOLUME and BASIS-vectors are now :
 -----------------------------------------------------------------------------
  energy-cutoff  :      400.00
  volume of cell :     1092.32
      direct lattice vectors                 reciprocal lattice vectors
    10.100000000  0.000000000  0.000000000     0.099009901  0.000000000  0.000000000
     0.000000000 10.300000000  0.000000000     0.000000000  0.097087379  0.000000000
     0.000000000  0.000000000 10.500000000     0.000000000  0.000000000  0.095238095

  length of vectors
    10.100000000 10.300000000 10.500000000     0.099009901  0.097087379  0.095238095


 FORCES acting on ions
    electron-ion (+dipol)            ewald-force                    non-local-force                 convergence-correction
 -----------------------------------------------------------------------------------------------
   0.692E-14 -.136E-13 0.120E+03   0.364E-16 -.565E-16 -.130E+03   0.000E+00 0.000E+00 0.170E+02   0.286E-13 0.163E-13 -.536E-02
   0.102E-13 -.153E-13 -.116E+03   0.356E-16 0.600E-16 0.130E+03   0.000E+00 0.000E+00 -.203E+02   0.119E-13 -.117E-13 0.152E-02
 -----------------------------------------------------------------------------------------------
   0.172E-13 -.289E-13 0.332E+01   0.720E-16 0.346E-17 0.000E+00   0.000E+00 0.000E+00 -.331E+01   0.405E-13 0.463E-14 -.384E-02
 
 
 POSITION                                       TOTAL-FORCE (eV/Angst)
 -----------------------------------------------------------------------------------
      0.00000      0.00000      0.00000         0.000000      0.000000      6.406034
      0.00000      0.00000      1.80000         0.000000      0.000000     -6.406034
 -----------------------------------------------------------------------------------
    total drift:                                0.000000     -0.000000      0.001916


--------------------------------------------------------------------------------------------------------



  FREE ENERGIE OF THE ION-ELECTRON SYSTEM (eV)
  ---------------------------------------------------
  free  energy   TOTEN  =        -7.17687989 eV

  energy  without entropy=       -7.06405116  energy(sigma->0) =       -7.12046552
 


--------------------------------------------------------------------------------------------------------


    POTLOK:  cpu time    1.66: real time    1.66


--------------------------------------------------------------------------------------------------------


     LOOP+:  cpu time   50.31: real time   50.34
    4ORBIT:  cpu time    0.00: real time    0.00

 total amount of memory used by VASP on root node   175530. kBytes
========================================================================

   base      :      30000. kBytes
   nonl-proj :       3171. kBytes
   fftplans  :      37440. kBytes
   grid      :      98560. kBytes
   one-center:         12. kBytes
   wavefun   :       6347. kBytes
 
  
  
 General timing and accounting informations for this job:
 ========================================================
  
                  Total CPU time used (sec):       51.808
                            User time (sec):       51.532
                          System time (sec):        0.276
                         Elapsed time (sec):       51.842
  
                   Maximum memory used (kb):      330628.
                   Average memory used (kb):           0.
  
                          Minor page faults:        63345
                          Major page faults:            0
                 Voluntary context switches:            0
