 vasp.5.3.3 18Dez12 (build Sep  7 2015 22:32:56) complex                        
  
 executed on             LinuxIFC date 2002.02.18  05:44:42
 running on    1 total cores
 distrk:  each k-point on    1 cores,    1 groups
 distr:  one band on NCORES_PER_BAND=   1 cores,    1 groups


--------------------------------------------------------------------------------------------------------


 INCAR:
 POTCAR:    PAW_PBE N 08Apr2002                   
 POTCAR:    PAW_PBE O 08Apr2002                   
 POTCAR:    PAW_PBE N 08Apr2002                   
   VRHFIN =N: s2p3                                                              
   LEXCH  = PE                                                                  
   EATOM  =   264.5486 eV,   19.4438 Ry                                         
                                                                                
   TITEL  = PAW_PBE N 08Apr2002                                                 
   LULTRA =        F    use ultrasoft PP ?                                      
   IUNSCR =        1    unscreen: 0-lin 1-nonlin 2-no                           
   RPACOR =    1.200    partial core radius                                     
   POMASS =   14.001; ZVAL   =    5.000    mass and valenz                      
   RCORE  =    1.500    outmost cutoff radius                                   
   RWIGS  =    1.400; RWIGS  =    0.741    wigner-seitz radius (au A)           
   ENMAX  =  400.000; ENMIN  =  300.000 eV                                      
   ICORE  =        2    local potential                                         
   LCOR   =        T    correct aug charges                                     
   LPAW   =        T    paw PP                                                  
   EAUG   =  627.112                                                            
   DEXC   =    0.000                                                            
   RMAX   =    1.529    core radius for proj-oper                               
   RAUG   =    1.300    factor for augmentation sphere                          
   RDEP   =    1.514    radius for radial grids                                 
   RDEPT  =    1.338    core radius for aug-charge                              
                                                                                
   Atomic configuration                                                         
    4 entries                                                                   
     n  l   j            E        occ.                                          
     1  0  0.50      -384.7179   2.0000                                         
     2  0  0.50       -18.5828   2.0000                                         
     2  1  0.50        -7.0898   3.0000                                         
     3  2  1.50        -6.8029   0.0000                                         
   Description                                                                  
     l       E           TYP  RCUT    TYP  RCUT                                 
     0    -18.5828119     23  1.200                                             
     0    -13.5018863     23  1.200                                             
     1     -7.0897853     23  1.500                                             
     1      9.5240782     23  1.500                                             
     2     -6.8029130      7  1.500                                             
  local pseudopotential read in
  partial core-charges read in
  partial kinetic energy density read in
  atomic valenz-charges read in
  non local Contribution for L=           0  read in
    real space projection operators read in
  non local Contribution for L=           0  read in
    real space projection operators read in
  non local Contribution for L=           1  read in
    real space projection operators read in
  non local Contribution for L=           1  read in
    real space projection operators read in
    PAW grid and wavefunctions read in
 
   number of l-projection  operators is LMAX  =           4
   number of lm-projection operators is LMMAX =           8
 
 POTCAR:    PAW_PBE O 08Apr2002                   
   VRHFIN =O: s2p4                                                              
   LEXCH  = PE                                                                  
   EATOM  =   432.3788 eV,   31.7789 Ry                                         
                                                                                
   TITEL  = PAW_PBE O 08Apr2002                                                 
   LULTRA =        F    use ultrasoft PP ?                                      
   IUNSCR =        1    unscreen: 0-lin 1-nonlin 2-no                           
   RPACOR =    1.200    partial core radius                                     
   POMASS =   16.000; ZVAL   =    6.000    mass and valenz                      
   RCORE  =    1.520    outmost cutoff radius                                   
   RWIGS  =    1.550; RWIGS  =    0.820    wigner-seitz radius (au A)           
   ENMAX  =  400.000; ENMIN  =  300.000 eV                                      
   ICORE  =        2    local potential                                         
   LCOR   =        T    correct aug charges                                     
   LPAW   =        T    paw PP                                                  
   EAUG   =  605.392                                                            
   DEXC   =    0.000                                                            
   RMAX   =    1.553    core radius for proj-oper                               
   RAUG   =    1.300    factor for augmentation sphere                          
   RDEP   =    1.550    radius for radial grids                                 
   RDEPT  =    1.329    core radius for aug-charge                              
                                                                                
   Atomic configuration                                                         
    4 entries                                                                   
     n  l   j            E        occ.                                          
     1  0  0.50      -514.6923   2.0000                                         
     2  0  0.50       -23.9615   2.0000                                         
     2  1  0.50        -9.0305   4.0000                                         
     3  2  1.50        -9.5241   0.0000                                         
   Description                                                                  
     l       E           TYP  RCUT    TYP  RCUT                                 
     0    -23.9615318     23  1.200                                             
     0     -9.5240782     23  1.200                                             
     1     -9.0304911     23  1.520                                             
     1      8.1634956     23  1.520                                             
     2     -9.5240782      7  1.500                                             
  local pseudopotential read in
  partial core-charges read in
  partial kinetic energy density read in
  kinetic energy density of atom read in
  atomic valenz-charges read in
  non local Contribution for L=           0  read in
    real space projection operators read in
  non local Contribution for L=           0  read in
    real space projection operators read in
  non local Contribution for L=           1  read in
    real space projection operators read in
  non local Contribution for L=           1  read in
    real space projection operators read in
    PAW grid and wavefunctions read in
 
   number of l-projection  operators is LMAX  =           4
   number of lm-projection operators is LMMAX =           8
 
  PAW_PBE N 08Apr2002                   :
 energy of atom  1       EATOM= -264.5486
 kinetic energy error for atom=    0.0736 (will be added to EATOM!!)
  PAW_PBE O 08Apr2002                   :
 energy of atom  2       EATOM= -432.3788
 kinetic energy error for atom=    0.1156 (will be added to EATOM!!)
 
 
 POSCAR: CO molecule in a box                    
  positions in cartesian coordinates
  No initial velocities read in
 exchange correlation table for  LEXCH =        8
   RHO(1)=    0.500       N(1)  =     2000
   RHO(2)=  100.500       N(2)  =     4000
 


--------------------------------------------------------------------------------------------------------


 ion  position               nearest neighbor table
   1  0.000  0.000  0.000-   2 1.30
   2  0.000  0.000  0.124-   1 1.30
 
  LATTYP: Found a simple orthorhombic cell.
 ALAT       =    10.1000000000
 B/A-ratio  =     1.0198019802
 C/A-ratio  =     1.0396039604
  
  Lattice vectors:
  
 A1 = (  10.1000000000,   0.0000000000,   0.0000000000)
 A2 = (   0.0000000000,  10.3000000000,   0.0000000000)
 A3 = (   0.0000000000,   0.0000000000,  10.5000000000)


Analysis of symmetry for initial positions (statically):
=====================================================================
 Subroutine PRICEL returns:
 Original cell was already a primitive cell.
 

 Routine SETGRP: Setting up the symmetry group for a 
 simple orthorhombic supercell.


 Subroutine GETGRP returns: Found  4 space group operations
 (whereof  4 operations were pure point group operations)
 out of a pool of  8 trial point group operations.


The static configuration has the point symmetry C_2v.


Analysis of symmetry for dynamics (positions and initial velocities):
=====================================================================
 Subroutine PRICEL returns:
 Original cell was already a primitive cell.
 

 Routine SETGRP: Setting up the symmetry group for a 
 simple orthorhombic supercell.


 Subroutine GETGRP returns: Found  4 space group operations
 (whereof  4 operations were pure point group operations)
 out of a pool of  8 trial point group operations.


The dynamic configuration has the point symmetry C_2v.


Analysis of constrained symmetry for selective dynamics:
=====================================================================
 Subroutine PRICEL returns:
 Original cell was already a primitive cell.
 

 Routine SETGRP: Setting up the symmetry group for a 
 simple orthorhombic supercell.


 Subroutine GETGRP returns: Found  4 space group operations
 (whereof  4 operations were pure point group operations)
 out of a pool of  8 trial point group operations.


The constrained configuration has the point symmetry C_2v.


Analysis of magnetic symmetry:
=====================================================================

 Subroutine MAGSYM returns: Found  4 space group operations
 (whereof  4 operations were pure point group operations)
 out of a pool of  4 trial space group operations
 (whereof  4 operations were pure point group operations)
 and found also     1 'primitive' translations


The magnetic configuration has the point symmetry C_2v.


 irot  :   1
 --------------------------------------------------------------------
 isymop:   1   0   0
           0   1   0
           0   0   1

 gtrans:     0.0000000     0.0000000     0.0000000

 ptrans:     0.0000000     0.0000000     0.0000000
 rotmap:
 (   1->   1)  (   2->   2) 


 irot  :   2
 --------------------------------------------------------------------
 isymop:  -1   0   0
           0  -1   0
           0   0   1

 gtrans:     0.0000000     0.0000000     0.0000000

 ptrans:     0.0000000     0.0000000     0.0000000
 rotmap:
 (   1->   1)  (   2->   2) 


 irot  :   3
 --------------------------------------------------------------------
 isymop:   1   0   0
           0  -1   0
           0   0   1

 gtrans:     0.0000000     0.0000000     0.0000000

 ptrans:     0.0000000     0.0000000     0.0000000
 rotmap:
 (   1->   1)  (   2->   2) 


 irot  :   4
 --------------------------------------------------------------------
 isymop:  -1   0   0
           0   1   0
           0   0   1

 gtrans:     0.0000000     0.0000000     0.0000000

 ptrans:     0.0000000     0.0000000     0.0000000
 rotmap:
 (   1->   1)  (   2->   2) 
 
 
 KPOINTS: Gamma-point only                        

Automatic generation of k-mesh.
Space group operators:
 irot       det(A)        alpha          n_x          n_y          n_z        tau_x        tau_y        tau_z
    1     1.000000     0.000000     1.000000     0.000000     0.000000     0.000000     0.000000     0.000000
    2     1.000000   180.000000     0.000000     0.000000     1.000000     0.000000     0.000000     0.000000
    3    -1.000000   180.000000     0.000000     1.000000     0.000000     0.000000     0.000000     0.000000
    4    -1.000000   180.000000     1.000000     0.000000     0.000000     0.000000     0.000000     0.000000
 
 Subroutine IBZKPT returns following result:
 ===========================================
 
 Found      1 irreducible k-points:
 
 Following reciprocal coordinates:
            Coordinates               Weight
  0.000000  0.000000  0.000000      1.000000
 
 Following cartesian coordinates:
            Coordinates               Weight
  0.000000  0.000000  0.000000      1.000000
 


--------------------------------------------------------------------------------------------------------




 Dimension of arrays:
   k-points           NKPTS =      1   k-points in BZ     NKDIM =      1   number of bands    NBANDS=     10
   number of dos      NEDOS =    301   number of ions     NIONS =      2
   non local maximal  LDIM  =      4   non local SUM 2l+1 LMDIM =      8
   total plane-waves  NPLWV = 135000
   max r-space proj   IRMAX =      1   max aug-charges    IRDMAX=   1803
   dimension x,y,z NGX =    50 NGY =   50 NGZ =   54
   dimension x,y,z NGXF=   100 NGYF=  100 NGZF=  108
   support grid    NGXF=   100 NGYF=  100 NGZF=  108
   ions per type =               1   1
 NGX,Y,Z   is equivalent  to a cutoff of   8.23,  8.07,  8.55 a.u.
 NGXF,Y,Z  is equivalent  to a cutoff of  16.46, 16.14, 17.10 a.u.


 I would recommend the setting:
   dimension x,y,z NGX =    49 NGY =   50 NGZ =   51
 SYSTEM =  Hello World                             
 POSCAR =  CO molecule in a box                    

 Startparameter for this run:
   NWRITE =      2    write-flag & timer
   PREC   = normal    normal or accurate (medium, high low for compatibility)
   ISTART =      0    job   : 0-new  1-cont  2-samecut
   ICHARG =      2    charge: 1-file 2-atom 10-const
   ISPIN  =      2    spin polarized calculation?
   LNONCOLLINEAR =      F non collinear calculations
   LSORBIT =      F    spin-orbit coupling
   INIWAV =      1    electr: 0-lowe 1-rand  2-diag
   LASPH  =      F    aspherical Exc in radial PAW
   METAGGA=      F    non-selfconsistent MetaGGA calc.

 Electronic Relaxation 1
   ENCUT  =  400.0 eV  29.40 Ry    5.42 a.u.  16.47 16.80 17.12*2*pi/ulx,y,z
   ENINI  =  400.0     initial cutoff
   ENAUG  =  627.1 eV  augmentation charge cutoff
   NELM   =     60;   NELMIN=  2; NELMDL=  0     # of ELM steps 
   EDIFF  = 0.1E-03   stopping-criterion for ELM
   LREAL  =      F    real-space projection
   NLSPLINE    = F    spline interpolate recip. space projectors
   LCOMPAT=      F    compatible to vasp.4.4
   GGA_COMPAT  = T    GGA compatible to vasp.4.4-vasp.4.6
   LMAXPAW     = -100 max onsite density
   LMAXMIX     =    2 max onsite mixed and CHGCAR
   VOSKOWN=      0    Vosko Wilk Nusair interpolation
   ROPT   =    0.00000   0.00000
 Ionic relaxation
   EDIFFG = -.1E-01   stopping-criterion for IOM
   NSW    =      0    number of steps for IOM
   NBLOCK =      1;   KBLOCK =      1    inner block; outer block 
   IBRION =     -1    ionic relax: 0-MD 1-quasi-New 2-CG
   NFREE  =      0    steps in history (QN), initial steepest desc. (CG)
   ISIF   =      2    stress and relaxation
   IWAVPR =     10    prediction:  0-non 1-charg 2-wave 3-comb
   ISYM   =      2    0-nonsym 1-usesym 2-fastsym
   LCORR  =      T    Harris-Foulkes like correction to forces

   POTIM  = 0.5000    time-step for ionic-motion
   TEIN   =    0.0    initial temperature
   TEBEG  =    0.0;   TEEND  =   0.0 temperature during run
   SMASS  =  -3.00    Nose mass-parameter (am)
   estimated Nose-frequenzy (Omega)   =  0.10E-29 period in steps =****** mass=  -0.233E-26a.u.
   SCALEE = 1.0000    scale energy and forces
   NPACO  =    256;   APACO  = 16.0  distance and # of slots for P.C.
   PSTRESS=    0.0 pullay stress

  Mass of Ions in am
   POMASS =  14.00 16.00
  Ionic Valenz
   ZVAL   =   5.00  6.00
  Atomic Wigner-Seitz radii
   RWIGS  =  -1.00 -1.00
  virtual crystal weights 
   VCA    =   1.00  1.00
   NELECT =      11.0000    total number of electrons
   NUPDOWN=      -1.0000    fix difference up-down

 DOS related values:
   EMIN   =  10.00;   EMAX   =-10.00  energy-range for DOS
   EFERMI =   0.00
   ISMEAR =     0;   SIGMA  =   0.20  broadening in eV -4-tet -1-fermi 0-gaus

 Electronic relaxation 2 (details)
   IALGO  =     68    algorithm
   LDIAG  =      T    sub-space diagonalisation (order eigenvalues)
   LSUBROT=      T    optimize rotation matrix (better conditioning)
   TURBO    =      0    0=normal 1=particle mesh
   IRESTART =      0    0=no restart 2=restart with 2 vectors
   NREBOOT  =      0    no. of reboots
   NMIN     =      0    reboot dimension
   EREF     =   0.00    reference energy to select bands
   IMIX   =      4    mixing-type and parameters
     AMIX     =   0.40;   BMIX     =  1.00
     AMIX_MAG =   1.60;   BMIX_MAG =  1.00
     AMIN     =   0.10
     WC   =   100.;   INIMIX=   1;  MIXPRE=   1;  MAXMIX= -45

 Intra band minimization:
   WEIMIN = 0.0000     energy-eigenvalue tresh-hold
   EBREAK =  0.25E-05  absolut break condition
   DEPER  =   0.30     relativ break condition  

   TIME   =   0.40     timestep for ELM

  volume/ion in A,a.u.               =     546.16      3685.65
  Fermi-wavevector in a.u.,A,eV,Ry     =   0.353527  0.668070  1.700478  0.124982
  Thomas-Fermi vector in A             =   1.267843
 
 Write flags
   LWAVE  =      F    write WAVECAR
   LCHARG =      F    write CHGCAR
   LVTOT  =      F    write LOCPOT, total local potential
   LVHAR  =      F    write LOCPOT, Hartree potential only
   LELF   =      F    write electronic localiz. function (ELF)
   LORBIT =      0    0 simple, 1 ext, 2 COOP (PROOUT)


 Dipole corrections
   LMONO  =      F    monopole corrections only (constant potential shift)
   LDIPOL =      F    correct potential (dipole corrections)
   IDIPOL =      0    1-x, 2-y, 3-z, 4-all directions 
   EPSILON=  1.0000000 bulk dielectric constant

 Exchange correlation treatment:
   GGA     =    --    GGA type
   LEXCH   =     8    internal setting for exchange type
   VOSKOWN=      0    Vosko Wilk Nusair interpolation
   LHFCALC =     F    Hartree Fock is set to
   LHFONE  =     F    Hartree Fock one center treatment
   AEXX    =    0.0000 exact exchange contribution

 Linear response parameters
   LEPSILON=     F    determine dielectric tensor
   LRPA    =     F    only Hartree local field effects (RPA)
   LNABLA  =     F    use nabla operator in PAW spheres
   LVEL    =     F    velocity operator in full k-point grid
   LINTERFAST=   F  fast interpolation
   KINTER  =     0    interpolate to denser k-point grid
   CSHIFT  =0.1000    complex shift for real part using Kramers Kronig
   OMEGAMAX=  -1.0    maximum frequency
   DEG_THRESHOLD= 0.2000000E-02 threshold for treating states as degnerate
   RTIME   =    0.100 relaxation time in fs

 Orbital magnetization related:
   ORBITALMAG=     F  switch on orbital magnetization
   LCHIMAG   =     F  perturbation theory with respect to B field
   DQ        =  0.001000  dq finite difference perturbation B field



--------------------------------------------------------------------------------------------------------


 Static calculation
 charge density and potential will be updated during run
 spin polarized calculation
 RMM-DIIS sequential band-by-band and
  variant of blocked Davidson during initial phase
 perform sub-space diagonalisation
    before iterative eigenvector-optimisation
 modified Broyden-mixing scheme, WC =      100.0
 initial mixing is a Kerker type mixing with AMIX =  0.4000 and BMIX =      1.0000
 Hartree-type preconditioning will be used
 using additional bands            4
 reciprocal scheme for non local part
 use partial core corrections
 calculate Harris-corrections to forces 
   (improved forces if not selfconsistent)
 use gradient corrections 
 use of overlap-Matrix (Vanderbilt PP)
 Gauss-broadening in eV      SIGMA  =   0.20


--------------------------------------------------------------------------------------------------------


  energy-cutoff  :      400.00
  volume of cell :     1092.32
      direct lattice vectors                 reciprocal lattice vectors
    10.100000000  0.000000000  0.000000000     0.099009901  0.000000000  0.000000000
     0.000000000 10.300000000  0.000000000     0.000000000  0.097087379  0.000000000
     0.000000000  0.000000000 10.500000000     0.000000000  0.000000000  0.095238095

  length of vectors
    10.100000000 10.300000000 10.500000000     0.099009901  0.097087379  0.095238095


 
 k-points in units of 2pi/SCALE and weight: Gamma-point only                        
   0.00000000  0.00000000  0.00000000       1.000
 
 k-points in reciprocal lattice and weights: Gamma-point only                        
   0.00000000  0.00000000  0.00000000       1.000
 
 position of ions in fractional coordinates (direct lattice) 
   0.00000000  0.00000000  0.00000000
   0.00000000  0.00000000  0.12380952
 
 position of ions in cartesian coordinates  (Angst):
   0.00000000  0.00000000  0.00000000
   0.00000000  0.00000000  1.30000000
 


--------------------------------------------------------------------------------------------------------


 k-point  1 :   0.0000 0.0000 0.0000  plane waves:   19819

 maximum and minimum number of plane-waves per node :     19819    19819

 maximum number of plane-waves:     19819
 maximum index in each direction: 
   IXMAX=   16   IYMAX=   16   IZMAX=   17
   IXMIN=  -16   IYMIN=  -16   IZMIN=  -17

 WARNING: aliasing errors must be expected set NGX to  66 to avoid them
 WARNING: aliasing errors must be expected set NGY to  66 to avoid them
 WARNING: aliasing errors must be expected set NGZ to  70 to avoid them
 aliasing errors are usually negligible using standard VASP settings
 and one can safely disregard these warnings

 serial   3D FFT for wavefunctions
 parallel 3D FFT for charge:
    minimum data exchange during FFTs selected (reduces bandwidth)


 total amount of memory used by VASP on root node   175530. kBytes
========================================================================

   base      :      30000. kBytes
   nonl-proj :       3171. kBytes
   fftplans  :      37440. kBytes
   grid      :      98560. kBytes
   one-center:         12. kBytes
   wavefun   :       6347. kBytes
 
 Broyden mixing: mesh for mixing (old mesh)
   NGX = 33   NGY = 33   NGZ = 35
  (NGX  =100   NGY  =100   NGZ  =108)
  gives a total of  38115 points

 initial charge density was supplied:
 charge density of overlapping atoms calculated
 number of electron      11.0000000 magnetization       2.0000000
 keeping initial charge density in first step


--------------------------------------------------------------------------------------------------------


 Maximum index for augmentation-charges         1533 (set IRDMAX)


--------------------------------------------------------------------------------------------------------


 First call to EWALD:  gamma=   0.172
 Maximum number of real-space cells 3x 3x 3
 Maximum number of reciprocal cells 3x 3x 3

 FEWALD executed in parallel
    FEWALD:  cpu time    0.00: real time    0.00


----------------------------------------- Iteration    1(   1)  ---------------------------------------


    POTLOK:  cpu time    1.67: real time    1.67
    SETDIJ:  cpu time    0.02: real time    0.02
     EDDAV:  cpu time    0.64: real time    0.64
       DOS:  cpu time    0.00: real time    0.00
    --------------------------------------------
      LOOP:  cpu time    2.32: real time    2.32

 eigenvalue-minimisations  :    56
 total energy-change (2. order) : 0.5722840E+02  (-0.2170497E+03)
 number of electron      11.0000000 magnetization       2.0000000
 augmentation part       11.0000000 magnetization       2.0000000

 Free energy of the ion-electron system (eV)
  ---------------------------------------------------
  alpha Z        PSCENC =         0.45022818
  Ewald energy   TEWEN  =        93.69193776
  -1/2 Hartree   DENC   =      -674.31750909
  -exchange  EXHF       =         0.00000000
  -V(xc)+E(xc)   XCENC  =        45.87763706
  PAW double counting   =       551.20228741     -554.18101748
  entropy T*S    EENTRO =        -0.02858060
  eigenvalues    EBANDS =      -102.20478169
  atomic energy  EATOM  =       696.73819845
  ---------------------------------------------------
  free energy    TOTEN  =        57.22840000 eV

  energy without entropy =       57.25698060  energy(sigma->0) =       57.24269030


--------------------------------------------------------------------------------------------------------




----------------------------------------- Iteration    1(   2)  ---------------------------------------


     EDDAV:  cpu time    0.66: real time    0.65
       DOS:  cpu time    0.00: real time    0.00
    --------------------------------------------
      LOOP:  cpu time    0.66: real time    0.65

 eigenvalue-minimisations  :    60
 total energy-change (2. order) :-0.5559429E+02  (-0.5500933E+02)
 number of electron      11.0000000 magnetization       2.0000000
 augmentation part       11.0000000 magnetization       2.0000000

 Free energy of the ion-electron system (eV)
  ---------------------------------------------------
  alpha Z        PSCENC =         0.45022818
  Ewald energy   TEWEN  =        93.69193776
  -1/2 Hartree   DENC   =      -674.31750909
  -exchange  EXHF       =         0.00000000
  -V(xc)+E(xc)   XCENC  =        45.87763706
  PAW double counting   =       551.20228741     -554.18101748
  entropy T*S    EENTRO =        -0.13353958
  eigenvalues    EBANDS =      -157.69411202
  atomic energy  EATOM  =       696.73819845
  ---------------------------------------------------
  free energy    TOTEN  =         1.63411069 eV

  energy without entropy =        1.76765027  energy(sigma->0) =        1.70088048


--------------------------------------------------------------------------------------------------------




----------------------------------------- Iteration    1(   3)  ---------------------------------------


     EDDAV:  cpu time    0.78: real time    0.79
       DOS:  cpu time    0.00: real time    0.00
    --------------------------------------------
      LOOP:  cpu time    0.78: real time    0.79

 eigenvalue-minimisations  :    74
 total energy-change (2. order) :-0.1269123E+02  (-0.1236975E+02)
 number of electron      11.0000000 magnetization       2.0000000
 augmentation part       11.0000000 magnetization       2.0000000

 Free energy of the ion-electron system (eV)
  ---------------------------------------------------
  alpha Z        PSCENC =         0.45022818
  Ewald energy   TEWEN  =        93.69193776
  -1/2 Hartree   DENC   =      -674.31750909
  -exchange  EXHF       =         0.00000000
  -V(xc)+E(xc)   XCENC  =        45.87763706
  PAW double counting   =       551.20228741     -554.18101748
  entropy T*S    EENTRO =        -0.00820306
  eigenvalues    EBANDS =      -170.51067842
  atomic energy  EATOM  =       696.73819845
  ---------------------------------------------------
  free energy    TOTEN  =       -11.05711919 eV

  energy without entropy =      -11.04891614  energy(sigma->0) =      -11.05301767


--------------------------------------------------------------------------------------------------------




----------------------------------------- Iteration    1(   4)  ---------------------------------------


     EDDAV:  cpu time    0.62: real time    0.62
       DOS:  cpu time    0.00: real time    0.00
    --------------------------------------------
      LOOP:  cpu time    0.62: real time    0.62

 eigenvalue-minimisations  :    56
 total energy-change (2. order) :-0.5851559E+00  (-0.4841015E+00)
 number of electron      11.0000000 magnetization       2.0000000
 augmentation part       11.0000000 magnetization       2.0000000

 Free energy of the ion-electron system (eV)
  ---------------------------------------------------
  alpha Z        PSCENC =         0.45022818
  Ewald energy   TEWEN  =        93.69193776
  -1/2 Hartree   DENC   =      -674.31750909
  -exchange  EXHF       =         0.00000000
  -V(xc)+E(xc)   XCENC  =        45.87763706
  PAW double counting   =       551.20228741     -554.18101748
  entropy T*S    EENTRO =        -0.11279675
  eigenvalues    EBANDS =      -170.99124067
  atomic energy  EATOM  =       696.73819845
  ---------------------------------------------------
  free energy    TOTEN  =       -11.64227513 eV

  energy without entropy =      -11.52947838  energy(sigma->0) =      -11.58587676


--------------------------------------------------------------------------------------------------------




----------------------------------------- Iteration    1(   5)  ---------------------------------------


     EDDAV:  cpu time    0.62: real time    0.62
       DOS:  cpu time    0.00: real time    0.00
    CHARGE:  cpu time    0.11: real time    0.11
    MIXING:  cpu time    0.03: real time    0.03
    --------------------------------------------
      LOOP:  cpu time    0.75: real time    0.75

 eigenvalue-minimisations  :    56
 total energy-change (2. order) :-0.5590842E-02  (-0.5558532E-02)
 number of electron      11.0000007 magnetization       1.5781330
 augmentation part        0.7191665 magnetization       0.7601513

 Broyden mixing:
  rms(total) = 0.66328E+00    rms(broyden)= 0.66184E+00
  rms(prec ) = 0.70503E+00
  weight for this iteration     100.00

 Free energy of the ion-electron system (eV)
  ---------------------------------------------------
  alpha Z        PSCENC =         0.45022818
  Ewald energy   TEWEN  =        93.69193776
  -1/2 Hartree   DENC   =      -674.31750909
  -exchange  EXHF       =         0.00000000
  -V(xc)+E(xc)   XCENC  =        45.87763706
  PAW double counting   =       551.20228741     -554.18101748
  entropy T*S    EENTRO =        -0.11283710
  eigenvalues    EBANDS =      -170.99679116
  atomic energy  EATOM  =       696.73819845
  ---------------------------------------------------
  free energy    TOTEN  =       -11.64786598 eV

  energy without entropy =      -11.53502887  energy(sigma->0) =      -11.59144742


--------------------------------------------------------------------------------------------------------




----------------------------------------- Iteration    1(   6)  ---------------------------------------


    POTLOK:  cpu time    1.66: real time    1.66
    SETDIJ:  cpu time    0.02: real time    0.02
    EDDIAG:  cpu time    0.10: real time    0.10
  RMM-DIIS:  cpu time    0.48: real time    0.48
    ORTHCH:  cpu time    0.01: real time    0.01
       DOS:  cpu time    0.00: real time    0.00
    CHARGE:  cpu time    0.11: real time    0.11
    MIXING:  cpu time    0.03: real time    0.03
    --------------------------------------------
      LOOP:  cpu time    2.40: real time    2.41

 eigenvalue-minimisations  :    46
 total energy-change (2. order) : 0.1542313E+01  (-0.1789760E+00)
 number of electron      11.0000004 magnetization       1.3650742
 augmentation part        0.6868141 magnetization       0.5294934

 Broyden mixing:
  rms(total) = 0.29993E+00    rms(broyden)= 0.29963E+00
  rms(prec ) = 0.33491E+00
  weight for this iteration     100.00

 eigenvalues of (default mixing * dielectric matrix)
  average eigenvalue GAMMA=   0.8454
  0.8454

 Free energy of the ion-electron system (eV)
  ---------------------------------------------------
  alpha Z        PSCENC =         0.45022818
  Ewald energy   TEWEN  =        93.69193776
  -1/2 Hartree   DENC   =      -678.96022835
  -exchange  EXHF       =         0.00000000
  -V(xc)+E(xc)   XCENC  =        47.40357200
  PAW double counting   =       637.36032666     -640.36371324
  entropy T*S    EENTRO =        -0.11282934
  eigenvalues    EBANDS =      -166.31304539
  atomic energy  EATOM  =       696.73819845
  ---------------------------------------------------
  free energy    TOTEN  =       -10.10555327 eV

  energy without entropy =       -9.99272393  energy(sigma->0) =      -10.04913860


--------------------------------------------------------------------------------------------------------




----------------------------------------- Iteration    1(   7)  ---------------------------------------


    POTLOK:  cpu time    1.66: real time    1.66
    SETDIJ:  cpu time    0.02: real time    0.02
    EDDIAG:  cpu time    0.10: real time    0.10
  RMM-DIIS:  cpu time    0.48: real time    0.48
    ORTHCH:  cpu time    0.01: real time    0.01
       DOS:  cpu time    0.00: real time    0.00
    CHARGE:  cpu time    0.11: real time    0.11
    MIXING:  cpu time    0.03: real time    0.03
    --------------------------------------------
      LOOP:  cpu time    2.41: real time    2.41

 eigenvalue-minimisations  :    47
 total energy-change (2. order) :-0.8684032E+00  (-0.3567742E-01)
 number of electron      11.0000007 magnetization       1.1246514
 augmentation part        0.6966847 magnetization       0.2882377

 Broyden mixing:
  rms(total) = 0.16514E+00    rms(broyden)= 0.16496E+00
  rms(prec ) = 0.18236E+00
  weight for this iteration     100.00

 eigenvalues of (default mixing * dielectric matrix)
  average eigenvalue GAMMA=   1.0899
  1.4424  0.7374

 Free energy of the ion-electron system (eV)
  ---------------------------------------------------
  alpha Z        PSCENC =         0.45022818
  Ewald energy   TEWEN  =        93.69193776
  -1/2 Hartree   DENC   =      -680.00502747
  -exchange  EXHF       =         0.00000000
  -V(xc)+E(xc)   XCENC  =        46.81011435
  PAW double counting   =       683.73530690     -686.71519685
  entropy T*S    EENTRO =        -0.11281213
  eigenvalues    EBANDS =      -165.56670566
  atomic energy  EATOM  =       696.73819845
  ---------------------------------------------------
  free energy    TOTEN  =       -10.97395647 eV

  energy without entropy =      -10.86114434  energy(sigma->0) =      -10.91755040


--------------------------------------------------------------------------------------------------------




----------------------------------------- Iteration    1(   8)  ---------------------------------------


    POTLOK:  cpu time    1.66: real time    1.66
    SETDIJ:  cpu time    0.01: real time    0.02
    EDDIAG:  cpu time    0.11: real time    0.10
  RMM-DIIS:  cpu time    0.47: real time    0.47
    ORTHCH:  cpu time    0.00: real time    0.01
       DOS:  cpu time    0.00: real time    0.00
    CHARGE:  cpu time    0.11: real time    0.11
    MIXING:  cpu time    0.04: real time    0.03
    --------------------------------------------
      LOOP:  cpu time    2.40: real time    2.41

 eigenvalue-minimisations  :    46
 total energy-change (2. order) :-0.5473264E+00  (-0.2467390E-01)
 number of electron      11.0000005 magnetization       1.0402069
 augmentation part        0.6820239 magnetization       0.2075606

 Broyden mixing:
  rms(total) = 0.67629E-01    rms(broyden)= 0.67520E-01
  rms(prec ) = 0.75445E-01
  weight for this iteration     100.00

 eigenvalues of (default mixing * dielectric matrix)
  average eigenvalue GAMMA=   1.1427
  1.9004  0.9096  0.6180

 Free energy of the ion-electron system (eV)
  ---------------------------------------------------
  alpha Z        PSCENC =         0.45022818
  Ewald energy   TEWEN  =        93.69193776
  -1/2 Hartree   DENC   =      -682.12451233
  -exchange  EXHF       =         0.00000000
  -V(xc)+E(xc)   XCENC  =        46.47996288
  PAW double counting   =       741.35781634     -744.31874183
  entropy T*S    EENTRO =        -0.11273270
  eigenvalues    EBANDS =      -163.68343961
  atomic energy  EATOM  =       696.73819845
  ---------------------------------------------------
  free energy    TOTEN  =       -11.52128285 eV

  energy without entropy =      -11.40855015  energy(sigma->0) =      -11.46491650


--------------------------------------------------------------------------------------------------------




----------------------------------------- Iteration    1(   9)  ---------------------------------------


    POTLOK:  cpu time    1.66: real time    1.67
    SETDIJ:  cpu time    0.02: real time    0.02
    EDDIAG:  cpu time    0.10: real time    0.10
  RMM-DIIS:  cpu time    0.48: real time    0.48
    ORTHCH:  cpu time    0.01: real time    0.01
       DOS:  cpu time    0.00: real time    0.00
    CHARGE:  cpu time    0.10: real time    0.11
    MIXING:  cpu time    0.04: real time    0.04
    --------------------------------------------
      LOOP:  cpu time    2.41: real time    2.41

 eigenvalue-minimisations  :    46
 total energy-change (2. order) :-0.1669603E+00  (-0.3550922E-02)
 number of electron      11.0000005 magnetization       1.0128236
 augmentation part        0.6839414 magnetization       0.1812186

 Broyden mixing:
  rms(total) = 0.25941E-01    rms(broyden)= 0.25848E-01
  rms(prec ) = 0.28431E-01
  weight for this iteration     100.00

 eigenvalues of (default mixing * dielectric matrix)
  average eigenvalue GAMMA=   1.1637
  2.1742  1.0931  0.7727  0.6146

 Free energy of the ion-electron system (eV)
  ---------------------------------------------------
  alpha Z        PSCENC =         0.45022818
  Ewald energy   TEWEN  =        93.69193776
  -1/2 Hartree   DENC   =      -681.91545827
  -exchange  EXHF       =         0.00000000
  -V(xc)+E(xc)   XCENC  =        46.30905059
  PAW double counting   =       761.46892400     -764.40573306
  entropy T*S    EENTRO =        -0.11259358
  eigenvalues    EBANDS =      -163.91279726
  atomic energy  EATOM  =       696.73819845
  ---------------------------------------------------
  free energy    TOTEN  =       -11.68824318 eV

  energy without entropy =      -11.57564960  energy(sigma->0) =      -11.63194639


--------------------------------------------------------------------------------------------------------




----------------------------------------- Iteration    1(  10)  ---------------------------------------


    POTLOK:  cpu time    1.67: real time    1.67
    SETDIJ:  cpu time    0.01: real time    0.02
    EDDIAG:  cpu time    0.11: real time    0.10
  RMM-DIIS:  cpu time    0.48: real time    0.49
    ORTHCH:  cpu time    0.01: real time    0.01
       DOS:  cpu time    0.00: real time    0.00
    CHARGE:  cpu time    0.11: real time    0.11
    MIXING:  cpu time    0.04: real time    0.04
    --------------------------------------------
      LOOP:  cpu time    2.43: real time    2.43

 eigenvalue-minimisations  :    47
 total energy-change (2. order) :-0.5809237E-01  (-0.3911912E-03)
 number of electron      11.0000005 magnetization       1.0042293
 augmentation part        0.6840884 magnetization       0.1735382

 Broyden mixing:
  rms(total) = 0.14601E-01    rms(broyden)= 0.14393E-01
  rms(prec ) = 0.16060E-01
  weight for this iteration     100.00

 eigenvalues of (default mixing * dielectric matrix)
  average eigenvalue GAMMA=   1.1964
  2.2364  1.5033  0.9304  0.7098  0.6020

 Free energy of the ion-electron system (eV)
  ---------------------------------------------------
  alpha Z        PSCENC =         0.45022818
  Ewald energy   TEWEN  =        93.69193776
  -1/2 Hartree   DENC   =      -681.61967744
  -exchange  EXHF       =         0.00000000
  -V(xc)+E(xc)   XCENC  =        46.22863637
  PAW double counting   =       768.16767410     -771.09140369
  entropy T*S    EENTRO =        -0.11234272
  eigenvalues    EBANDS =      -164.19958655
  atomic energy  EATOM  =       696.73819845
  ---------------------------------------------------
  free energy    TOTEN  =       -11.74633555 eV

  energy without entropy =      -11.63399283  energy(sigma->0) =      -11.69016419


--------------------------------------------------------------------------------------------------------




----------------------------------------- Iteration    1(  11)  ---------------------------------------


    POTLOK:  cpu time    1.67: real time    1.67
    SETDIJ:  cpu time    0.02: real time    0.02
    EDDIAG:  cpu time    0.10: real time    0.10
  RMM-DIIS:  cpu time    0.46: real time    0.46
    ORTHCH:  cpu time    0.00: real time    0.01
       DOS:  cpu time    0.00: real time    0.00
    CHARGE:  cpu time    0.10: real time    0.11
    MIXING:  cpu time    0.04: real time    0.04
    --------------------------------------------
      LOOP:  cpu time    2.40: real time    2.40

 eigenvalue-minimisations  :    44
 total energy-change (2. order) :-0.6019944E-02  (-0.6946423E-04)
 number of electron      11.0000004 magnetization       1.0005523
 augmentation part        0.6844285 magnetization       0.1701537

 Broyden mixing:
  rms(total) = 0.10738E-01    rms(broyden)= 0.10566E-01
  rms(prec ) = 0.11993E-01
  weight for this iteration     100.00

 eigenvalues of (default mixing * dielectric matrix)
  average eigenvalue GAMMA=   1.2756
  2.2027  1.8043  1.4464  0.9023  0.6998  0.5982

 Free energy of the ion-electron system (eV)
  ---------------------------------------------------
  alpha Z        PSCENC =         0.45022818
  Ewald energy   TEWEN  =        93.69193776
  -1/2 Hartree   DENC   =      -681.52948647
  -exchange  EXHF       =         0.00000000
  -V(xc)+E(xc)   XCENC  =        46.21436478
  PAW double counting   =       770.19106469     -773.10795554
  entropy T*S    EENTRO =        -0.11211357
  eigenvalues    EBANDS =      -164.28859378
  atomic energy  EATOM  =       696.73819845
  ---------------------------------------------------
  free energy    TOTEN  =       -11.75235550 eV

  energy without entropy =      -11.64024193  energy(sigma->0) =      -11.69629871


--------------------------------------------------------------------------------------------------------




----------------------------------------- Iteration    1(  12)  ---------------------------------------


    POTLOK:  cpu time    1.66: real time    1.67
    SETDIJ:  cpu time    0.02: real time    0.02
    EDDIAG:  cpu time    0.10: real time    0.10
  RMM-DIIS:  cpu time    0.39: real time    0.39
    ORTHCH:  cpu time    0.01: real time    0.01
       DOS:  cpu time    0.00: real time    0.00
    CHARGE:  cpu time    0.10: real time    0.11
    MIXING:  cpu time    0.04: real time    0.05
    --------------------------------------------
      LOOP:  cpu time    2.34: real time    2.34

 eigenvalue-minimisations  :    37
 total energy-change (2. order) :-0.2709594E-03  (-0.3847765E-04)
 number of electron      11.0000004 magnetization       1.0002211
 augmentation part        0.6842617 magnetization       0.1698308

 Broyden mixing:
  rms(total) = 0.47769E-02    rms(broyden)= 0.47719E-02
  rms(prec ) = 0.52101E-02
  weight for this iteration     100.00

 eigenvalues of (default mixing * dielectric matrix)
  average eigenvalue GAMMA=   1.1898
  2.2576  1.4067  1.4067  1.1457  0.8269  0.5947  0.6903

 Free energy of the ion-electron system (eV)
  ---------------------------------------------------
  alpha Z        PSCENC =         0.45022818
  Ewald energy   TEWEN  =        93.69193776
  -1/2 Hartree   DENC   =      -681.61155396
  -exchange  EXHF       =         0.00000000
  -V(xc)+E(xc)   XCENC  =        46.21659142
  PAW double counting   =       770.99250815     -773.90782033
  entropy T*S    EENTRO =        -0.11215861
  eigenvalues    EBANDS =      -164.21055752
  atomic energy  EATOM  =       696.73819845
  ---------------------------------------------------
  free energy    TOTEN  =       -11.75262646 eV

  energy without entropy =      -11.64046785  energy(sigma->0) =      -11.69654715


--------------------------------------------------------------------------------------------------------




----------------------------------------- Iteration    1(  13)  ---------------------------------------


    POTLOK:  cpu time    1.66: real time    1.66
    SETDIJ:  cpu time    0.02: real time    0.02
    EDDIAG:  cpu time    0.10: real time    0.10
  RMM-DIIS:  cpu time    0.34: real time    0.34
    ORTHCH:  cpu time    0.00: real time    0.01
       DOS:  cpu time    0.00: real time    0.00
    CHARGE:  cpu time    0.11: real time    0.11
    MIXING:  cpu time    0.05: real time    0.05
    --------------------------------------------
      LOOP:  cpu time    2.28: real time    2.28

 eigenvalue-minimisations  :    31
 total energy-change (2. order) :-0.1280114E-02  (-0.1133199E-04)
 number of electron      11.0000005 magnetization       1.0006578
 augmentation part        0.6843155 magnetization       0.1703263

 Broyden mixing:
  rms(total) = 0.13904E-01    rms(broyden)= 0.13560E-01
  rms(prec ) = 0.14432E-01
  weight for this iteration     100.00

 eigenvalues of (default mixing * dielectric matrix)
  average eigenvalue GAMMA=   1.1107
  2.2726  1.5558  0.9746  0.9746  1.0222  0.8063  0.5944  0.6853

 Free energy of the ion-electron system (eV)
  ---------------------------------------------------
  alpha Z        PSCENC =         0.45022818
  Ewald energy   TEWEN  =        93.69193776
  -1/2 Hartree   DENC   =      -681.60323231
  -exchange  EXHF       =         0.00000000
  -V(xc)+E(xc)   XCENC  =        46.21445505
  PAW double counting   =       771.05276557     -773.96710116
  entropy T*S    EENTRO =        -0.11259661
  eigenvalues    EBANDS =      -164.21856149
  atomic energy  EATOM  =       696.73819845
  ---------------------------------------------------
  free energy    TOTEN  =       -11.75390657 eV

  energy without entropy =      -11.64130996  energy(sigma->0) =      -11.69760827


--------------------------------------------------------------------------------------------------------




----------------------------------------- Iteration    1(  14)  ---------------------------------------


    POTLOK:  cpu time    1.66: real time    1.66
    SETDIJ:  cpu time    0.01: real time    0.02
    EDDIAG:  cpu time    0.10: real time    0.10
  RMM-DIIS:  cpu time    0.37: real time    0.37
    ORTHCH:  cpu time    0.01: real time    0.01
       DOS:  cpu time    0.00: real time    0.00
    CHARGE:  cpu time    0.10: real time    0.11
    MIXING:  cpu time    0.05: real time    0.05
    --------------------------------------------
      LOOP:  cpu time    2.32: real time    2.32

 eigenvalue-minimisations  :    34
 total energy-change (2. order) : 0.1212182E-03  (-0.7508323E-05)
 number of electron      11.0000005 magnetization       1.0006988
 augmentation part        0.6843378 magnetization       0.1703573

 Broyden mixing:
  rms(total) = 0.12669E-01    rms(broyden)= 0.12592E-01
  rms(prec ) = 0.13452E-01
  weight for this iteration     100.00

 eigenvalues of (default mixing * dielectric matrix)
  average eigenvalue GAMMA=   1.2318
  1.5615  1.5615  2.2772  1.5821  1.1834  0.9281  0.7301  0.5962  0.6658

 Free energy of the ion-electron system (eV)
  ---------------------------------------------------
  alpha Z        PSCENC =         0.45022818
  Ewald energy   TEWEN  =        93.69193776
  -1/2 Hartree   DENC   =      -681.58915193
  -exchange  EXHF       =         0.00000000
  -V(xc)+E(xc)   XCENC  =        46.21413545
  PAW double counting   =       770.96712773     -773.88197414
  entropy T*S    EENTRO =        -0.11266808
  eigenvalues    EBANDS =      -164.23161876
  atomic energy  EATOM  =       696.73819845
  ---------------------------------------------------
  free energy    TOTEN  =       -11.75378535 eV

  energy without entropy =      -11.64111727  energy(sigma->0) =      -11.69745131


--------------------------------------------------------------------------------------------------------




----------------------------------------- Iteration    1(  15)  ---------------------------------------


    POTLOK:  cpu time    1.66: real time    1.66
    SETDIJ:  cpu time    0.02: real time    0.02
    EDDIAG:  cpu time    0.10: real time    0.10
  RMM-DIIS:  cpu time    0.35: real time    0.35
    ORTHCH:  cpu time    0.00: real time    0.01
       DOS:  cpu time    0.00: real time    0.00
    --------------------------------------------
      LOOP:  cpu time    2.14: real time    2.14

 eigenvalue-minimisations  :    32
 total energy-change (2. order) : 0.2045815E-04  (-0.7863288E-05)
 number of electron      11.0000005 magnetization       1.0006988
 augmentation part        0.6843378 magnetization       0.1703573

 Free energy of the ion-electron system (eV)
  ---------------------------------------------------
  alpha Z        PSCENC =         0.45022818
  Ewald energy   TEWEN  =        93.69193776
  -1/2 Hartree   DENC   =      -681.58571104
  -exchange  EXHF       =         0.00000000
  -V(xc)+E(xc)   XCENC  =        46.21419832
  PAW double counting   =       770.95331291     -773.86822779
  entropy T*S    EENTRO =        -0.11272260
  eigenvalues    EBANDS =      -164.23497908
  atomic energy  EATOM  =       696.73819845
  ---------------------------------------------------
  free energy    TOTEN  =       -11.75376490 eV

  energy without entropy =      -11.64104229  energy(sigma->0) =      -11.69740359


--------------------------------------------------------------------------------------------------------




 average (electrostatic) potential at core
  the test charge radii are     0.7089  0.7215
  (the norm of the test charge is              1.0000)
       1 -76.7090       2 -83.5600
 
 
 
 E-fermi :  -5.5700     XC(G=0):  -0.7178     alpha+bet : -0.1481


 spin component 1

 k-point   1 :       0.0000    0.0000    0.0000
  band No.  band energies     occupation 
      1     -28.8675      1.00000
      2     -17.5846      1.00000
      3     -11.5720      1.00000
      4     -11.5712      1.00000
      5     -11.4644      1.00000
      6      -5.5764      0.51803
      7      -5.5637      0.48197
      8      -0.4163      0.00000
      9       0.7699      0.00000
     10       0.9471      0.00000

 spin component 2

 k-point   1 :       0.0000    0.0000    0.0000
  band No.  band energies     occupation 
      1     -28.3824      1.00000
      2     -16.6909      1.00000
      3     -10.9888      1.00000
      4     -10.8021      1.00000
      5     -10.7410      1.00000
      6      -4.3527      0.00000
      7      -4.2765      0.00000
      8      -0.3396      0.00000
      9       0.8796      0.00000
     10       1.0483      0.00000


--------------------------------------------------------------------------------------------------------


 soft charge-density along one line, spin component           1
         0         1         2         3         4         5         6         7         8         9
 total charge-density along one line
 
 soft charge-density along one line, spin component           2
         0         1         2         3         4         5         6         7         8         9
 total charge-density along one line
 
 pseudopotential strength for first ion, spin component:           1
 14.416  17.321   0.000  -0.002   0.000   0.000  -0.016   0.000
 17.321  20.814   0.000  -0.003   0.000   0.000  -0.020   0.000
  0.000   0.000  -7.780  -0.000   0.000 -10.880  -0.000   0.000
 -0.002  -0.003  -0.000  -7.723   0.000  -0.000 -10.789   0.000
  0.000   0.000   0.000   0.000  -7.777   0.000   0.000 -10.876
  0.000   0.000 -10.880  -0.000   0.000 -14.581  -0.000   0.000
 -0.016  -0.020  -0.000 -10.789   0.000  -0.000 -14.436   0.000
  0.000   0.000   0.000   0.000 -10.876   0.000   0.000 -14.574
 pseudopotential strength for first ion, spin component:           2
 14.103  16.939   0.000  -0.007   0.000   0.000  -0.022   0.000
 16.939  20.347   0.000  -0.009   0.000   0.000  -0.027   0.000
  0.000   0.000  -7.551   0.000  -0.000 -10.517   0.000  -0.000
 -0.007  -0.009   0.000  -7.674  -0.000   0.000 -10.715  -0.000
  0.000   0.000  -0.000  -0.000  -7.564  -0.000  -0.000 -10.538
  0.000   0.000 -10.517   0.000  -0.000 -14.007   0.000  -0.000
 -0.022  -0.027   0.000 -10.715  -0.000   0.000 -14.322  -0.000
  0.000   0.000  -0.000  -0.000 -10.538  -0.000  -0.000 -14.040
 total augmentation occupancy for first ion, spin component:           1
  4.944  -2.122   0.000   1.768   0.000   0.000  -0.650   0.000
 -2.122   1.446   0.000  -1.616   0.000   0.000   0.495   0.000
  0.000   0.000   1.246   0.000   0.000  -0.090   0.000   0.000
  1.768  -1.616   0.000   2.497   0.000   0.000  -0.584   0.000
  0.000   0.000   0.000   0.000   1.228   0.000   0.000  -0.093
  0.000   0.000  -0.090   0.000   0.000   0.025   0.000   0.000
 -0.650   0.495   0.000  -0.584   0.000   0.000   0.173   0.000
  0.000   0.000   0.000   0.000  -0.093   0.000   0.000   0.024
 total augmentation occupancy for first ion, spin component:           2
 -0.240   0.140   0.000  -0.018   0.000   0.000   0.017   0.000
  0.140  -0.049   0.000   0.015   0.000   0.000  -0.009   0.000
  0.000   0.000   0.278   0.000   0.000   0.055   0.000   0.000
 -0.018   0.015   0.000  -0.009   0.000   0.000   0.006   0.000
  0.000   0.000   0.000   0.000   0.257   0.000   0.000   0.050
  0.000   0.000   0.055   0.000   0.000   0.003   0.000   0.000
  0.017  -0.009   0.000   0.006   0.000   0.000  -0.002   0.000
  0.000   0.000   0.000   0.000   0.050   0.000   0.000   0.003


------------------------ aborting loop because EDIFF is reached ----------------------------------------


    CHARGE:  cpu time    0.11: real time    0.11
    FORLOC:  cpu time    0.06: real time    0.05
    FORNL :  cpu time    0.10: real time    0.11
    STRESS:  cpu time    0.36: real time    0.36
    FORCOR:  cpu time    1.73: real time    1.73
    FORHAR:  cpu time    0.18: real time    0.19
    MIXING:  cpu time    0.06: real time    0.06

  FORCE on cell =-STRESS in cart. coord.  units (eV):
  Direction    XX          YY          ZZ          XY          YZ          ZX
  --------------------------------------------------------------------------------------
  Alpha Z     0.45023     0.45023     0.45023
  Ewald     -76.03979   -80.71737   250.44911    -0.00000    -0.00000    -0.00000
  Hartree   179.39997   175.27557   327.02590    -0.00000    -0.00000    -0.00000
  E(xc)     -49.62063   -49.61139   -48.46765     0.00000    -0.00000    -0.00000
  Local    -261.32058  -253.32439  -712.36724    -0.00000     0.00000    -0.00000
  n-local   -28.18453   -28.50043   -34.13655    -0.00001     0.00000     0.00001
  augment     6.73460     6.82235     6.14830     0.00000     0.00000     0.00000
  Kinetic   227.35656   228.51300   199.63544     0.00002     0.00000    -0.00002
  Fock        0.00000     0.00000     0.00000     0.00000     0.00000     0.00000
  -------------------------------------------------------------------------------------
  Total      -1.22416    -1.09244   -11.26246     0.00000     0.00000     0.00000
  in kB      -1.79556    -1.60236   -16.51946     0.00000     0.00000     0.00000
  external pressure =       -6.64 kB  Pullay stress =        0.00 kB


 VOLUME and BASIS-vectors are now :
 -----------------------------------------------------------------------------
  energy-cutoff  :      400.00
  volume of cell :     1092.32
      direct lattice vectors                 reciprocal lattice vectors
    10.100000000  0.000000000  0.000000000     0.099009901  0.000000000  0.000000000
     0.000000000 10.300000000  0.000000000     0.000000000  0.097087379  0.000000000
     0.000000000  0.000000000 10.500000000     0.000000000  0.000000000  0.095238095

  length of vectors
    10.100000000 10.300000000 10.500000000     0.099009901  0.097087379  0.095238095


 FORCES acting on ions
    electron-ion (+dipol)            ewald-force                    non-local-force                 convergence-correction
 -----------------------------------------------------------------------------------------------
   0.224E-14 0.760E-14 0.224E+03   0.153E-16 -.309E-17 -.254E+03   0.000E+00 0.000E+00 0.375E+02   0.193E-13 0.167E-13 -.193E-01
   -.756E-15 0.275E-14 -.213E+03   0.568E-16 0.655E-17 0.254E+03   0.000E+00 0.000E+00 -.490E+02   0.161E-13 0.350E-14 -.557E-02
 -----------------------------------------------------------------------------------------------
   0.148E-14 0.103E-13 0.116E+02   0.720E-16 0.346E-17 0.000E+00   0.000E+00 0.000E+00 -.116E+02   0.355E-13 0.202E-13 -.249E-01
 
 
 POSITION                                       TOTAL-FORCE (eV/Angst)
 -----------------------------------------------------------------------------------
      0.00000      0.00000      0.00000         0.000000      0.000000      7.990776
      0.00000      0.00000      1.30000         0.000000      0.000000     -7.990776
 -----------------------------------------------------------------------------------
    total drift:                                0.000000      0.000000     -0.007993


--------------------------------------------------------------------------------------------------------



  FREE ENERGIE OF THE ION-ELECTRON SYSTEM (eV)
  ---------------------------------------------------
  free  energy   TOTEN  =       -11.75376490 eV

  energy  without entropy=      -11.64104229  energy(sigma->0) =      -11.69740359
 


--------------------------------------------------------------------------------------------------------


    POTLOK:  cpu time    1.68: real time    1.68


--------------------------------------------------------------------------------------------------------


     LOOP+:  cpu time   32.96: real time   32.98
    4ORBIT:  cpu time    0.00: real time    0.00

 total amount of memory used by VASP on root node   175530. kBytes
========================================================================

   base      :      30000. kBytes
   nonl-proj :       3171. kBytes
   fftplans  :      37440. kBytes
   grid      :      98560. kBytes
   one-center:         12. kBytes
   wavefun   :       6347. kBytes
 
  
  
 General timing and accounting informations for this job:
 ========================================================
  
                  Total CPU time used (sec):       34.472
                            User time (sec):       34.248
                          System time (sec):        0.224
                         Elapsed time (sec):       34.492
  
                   Maximum memory used (kb):      321104.
                   Average memory used (kb):           0.
  
                          Minor page faults:        48446
                          Major page faults:            0
                 Voluntary context switches:            0
