<?xml version="1.0" encoding="ISO-8859-1"?>
<modeling>
 <generator>
  <i name="program" type="string">vasp </i>
  <i name="version" type="string">5.3.3  </i>
  <i name="subversion" type="string">18Dez12 (build Sep  7 2015 22:32:56) complex                          parallel </i>
  <i name="platform" type="string">LinuxIFC </i>
  <i name="date" type="string">2002 02 18 </i>
  <i name="time" type="string">05:14:58 </i>
 </generator>
 <incar>
  <i type="string" name="SYSTEM"> Hello World</i>
  <i type="string" name="PREC">normal</i>
  <i type="string" name="ALGO"> fast    ! algorithm for electronic opti</i>
  <i type="int" name="ISPIN">     2</i>
  <i type="int" name="IBRION">     1</i>
  <i name="EDIFF">      0.00010000</i>
  <i name="EDIFFG">     -0.01000000</i>
  <i type="int" name="NSW">   200</i>
  <i name="ENCUT">    400.00000000</i>
  <i type="int" name="ISMEAR">     0</i>
  <i type="logical" name="LWAVE"> F  </i>
  <i type="logical" name="LCHARG"> F  </i>
 </incar>
 <kpoints>
  <generation param="Gamma">
   <v type="int" name="divisions">       1        1        1 </v>
   <v name="usershift">      0.00000000       0.00000000       0.00000000 </v>
   <v name="genvec1">      1.00000000       0.00000000       0.00000000 </v>
   <v name="genvec2">      0.00000000       1.00000000       0.00000000 </v>
   <v name="genvec3">      0.00000000       0.00000000       1.00000000 </v>
   <v name="shift">      0.00000000       0.00000000       0.00000000 </v>
  </generation>
  <varray name="kpointlist" >
   <v>       0.00000000       0.00000000       0.00000000 </v>
  </varray>
  <varray name="weights" >
   <v>       1.00000000 </v>
  </varray>
 </kpoints>
 <parameters>
  <separator name="general" >
   <i type="string" name="SYSTEM">Hello World</i>
   <i type="logical" name="LCOMPAT"> F  </i>
  </separator>
  <separator name="electronic" >
   <i type="string" name="PREC">normal</i>
   <i name="ENMAX">    400.00000000</i>
   <i name="ENAUG">    627.11200000</i>
   <i name="EDIFF">      0.00010000</i>
   <i type="int" name="IALGO">    68</i>
   <i type="int" name="IWAVPR">    11</i>
   <i type="int" name="NBANDS">    10</i>
   <i name="NELECT">     11.00000000</i>
   <i type="int" name="TURBO">     0</i>
   <i type="int" name="IRESTART">     0</i>
   <i type="int" name="NREBOOT">     0</i>
   <i type="int" name="NMIN">     0</i>
   <i name="EREF">      0.00000000</i>
   <separator name="electronic smearing" >
    <i type="int" name="ISMEAR">     0</i>
    <i name="SIGMA">      0.20000000</i>
    <i name="KSPACING">      0.50000000</i>
    <i type="logical" name="KGAMMA"> T  </i>
   </separator>
   <separator name="electronic projectors" >
    <i type="logical" name="LREAL"> F  </i>
    <v name="ROPT">      0.00000000      0.00000000</v>
    <i type="int" name="LMAXPAW">  -100</i>
    <i type="int" name="LMAXMIX">     2</i>
    <i type="logical" name="NLSPLINE"> F  </i>
   </separator>
   <separator name="electronic startup" >
    <i type="int" name="ISTART">     0</i>
    <i type="int" name="ICHARG">     2</i>
    <i type="int" name="INIWAV">     1</i>
   </separator>
   <separator name="electronic spin" >
    <i type="int" name="ISPIN">     2</i>
    <i type="logical" name="LNONCOLLINEAR"> F  </i>
    <v name="MAGMOM">      1.00000000      1.00000000</v>
    <i name="NUPDOWN">     -1.00000000</i>
    <i type="logical" name="LSORBIT"> F  </i>
    <v name="SAXIS">      0.00000000      0.00000000      1.00000000</v>
    <i type="logical" name="LSPIRAL"> F  </i>
    <v name="QSPIRAL">      0.00000000      0.00000000      0.00000000</v>
    <i type="logical" name="LZEROZ"> F  </i>
   </separator>
   <separator name="electronic exchange-correlation" >
    <i type="logical" name="LASPH"> F  </i>
    <i type="logical" name="LMETAGGA"> F  </i>
   </separator>
   <separator name="electronic convergence" >
    <i type="int" name="NELM">    60</i>
    <i type="int" name="NELMDL">     0</i>
    <i type="int" name="NELMIN">     2</i>
    <i name="ENINI">    400.00000000</i>
    <separator name="electronic convergence detail" >
     <i type="logical" name="LDIAG"> T  </i>
     <i type="logical" name="LSUBROT"> T  </i>
     <i name="WEIMIN">      0.00100000</i>
     <i name="EBREAK">      0.00000250</i>
     <i name="DEPER">      0.30000000</i>
     <i type="int" name="NRMM">     4</i>
     <i name="TIME">      0.40000000</i>
    </separator>
   </separator>
   <separator name="electronic mixer" >
    <i name="AMIX">      0.40000000</i>
    <i name="BMIX">      1.00000000</i>
    <i name="AMIN">      0.10000000</i>
    <i name="AMIX_MAG">      1.60000000</i>
    <i name="BMIX_MAG">      1.00000000</i>
    <separator name="electronic mixer details" >
     <i type="int" name="IMIX">     4</i>
     <i type="int" name="MAXMIX">   -45</i>
     <i name="WC">    100.00000000</i>
     <i type="int" name="INIMIX">     1</i>
     <i type="int" name="MIXPRE">     1</i>
     <i type="int" name="MREMOVE">     5</i>
    </separator>
   </separator>
   <separator name="electronic dipolcorrection" >
    <i type="logical" name="LDIPOL"> F  </i>
    <i type="logical" name="LMONO"> F  </i>
    <i type="int" name="IDIPOL">     0</i>
    <i name="EPSILON">      1.00000000</i>
    <v name="DIPOL">   -100.00000000   -100.00000000   -100.00000000</v>
    <i name="EFIELD">      0.00000000</i>
   </separator>
  </separator>
  <separator name="grids" >
   <i type="int" name="NGX">    50</i>
   <i type="int" name="NGY">    50</i>
   <i type="int" name="NGZ">    54</i>
   <i type="int" name="NGXF">   100</i>
   <i type="int" name="NGYF">   100</i>
   <i type="int" name="NGZF">   108</i>
   <i type="logical" name="ADDGRID"> F  </i>
  </separator>
  <separator name="ionic" >
   <i type="int" name="NSW">   200</i>
   <i type="int" name="IBRION">     1</i>
   <i type="int" name="ISIF">     2</i>
   <i name="PSTRESS">      0.00000000</i>
   <i name="EDIFFG">     -0.01000000</i>
   <i type="int" name="NFREE">     0</i>
   <i name="POTIM">      0.50000000</i>
   <i name="SMASS">     -3.00000000</i>
   <i name="SCALEE">      1.00000000</i>
  </separator>
  <separator name="ionic md" >
   <i name="TEBEG">      0.00010000</i>
   <i name="TEEND">      0.00010000</i>
   <i type="int" name="NBLOCK">     1</i>
   <i type="int" name="KBLOCK">   200</i>
   <i type="int" name="NPACO">   256</i>
   <i name="APACO">     16.00000000</i>
  </separator>
  <separator name="symmetry" >
   <i type="int" name="ISYM">     2</i>
   <i name="SYMPREC">      0.00001000</i>
  </separator>
  <separator name="dos" >
   <i type="logical" name="LORBIT"> F  </i>
   <v name="RWIGS">     -1.00000000     -1.00000000</v>
   <i type="int" name="NEDOS">   301</i>
   <i name="EMIN">     10.00000000</i>
   <i name="EMAX">    -10.00000000</i>
   <i name="EFERMI">      0.00000000</i>
  </separator>
  <separator name="writing" >
   <i type="int" name="NWRITE">     2</i>
   <i type="logical" name="LWAVE"> F  </i>
   <i type="logical" name="LCHARG"> F  </i>
   <i type="logical" name="LPARD"> F  </i>
   <i type="logical" name="LVTOT"> F  </i>
   <i type="logical" name="LVHAR"> F  </i>
   <i type="logical" name="LELF"> F  </i>
   <i type="logical" name="LOPTICS"> F  </i>
   <v name="STM">      0.00000000      0.00000000      0.00000000      0.00000000      0.00000000      0.00000000      0.00000000</v>
  </separator>
  <separator name="performance" >
   <i type="int" name="NPAR">     1</i>
   <i type="int" name="NSIM">     4</i>
   <i type="int" name="NBLK">    -1</i>
   <i type="logical" name="LPLANE"> T  </i>
   <i type="logical" name="LSCALAPACK"> F  </i>
   <i type="logical" name="LSCAAWARE"> F  </i>
   <i type="logical" name="LSCALU"> F  </i>
   <i type="logical" name="LASYNC"> F  </i>
   <i type="logical" name="LORBITALREAL"> F  </i>
  </separator>
  <separator name="miscellaneous" >
   <i type="int" name="IDIOT">     3</i>
   <i type="logical" name="LMUSIC"> F  </i>
   <v name="POMASS">     14.00100000     16.00000000</v>
   <v name="DARWINR">      0.00000000      0.00000000</v>
   <v name="DARWINV">      1.00000000      1.00000000</v>
   <i type="logical" name="LCORR"> T  </i>
  </separator>
  <i type="logical" name="GGA_COMPAT"> T  </i>
  <i type="logical" name="LBERRY"> F  </i>
  <i type="int" name="ICORELEVEL">     0</i>
  <i type="logical" name="LDAU"> F  </i>
  <i type="int" name="I_CONSTRAINED_M">     0</i>
  <separator name="electronic exchange-correlation" >
   <i type="string" name="GGA">--</i>
   <i type="int" name="VOSKOWN">     0</i>
   <i type="logical" name="LHFCALC"> F  </i>
   <i type="string" name="PRECFOCK"></i>
   <i type="logical" name="LSYMGRAD"> F  </i>
   <i type="logical" name="LHFONE"> F  </i>
   <i type="logical" name="LRHFCALC"> F  </i>
   <i type="logical" name="LTHOMAS"> F  </i>
   <i type="logical" name="LMODELHF"> F  </i>
   <i name="ENCUT4O">     -1.00000000</i>
   <i type="int" name="EXXOEP">     0</i>
   <i type="int" name="FOURORBIT">     0</i>
   <i name="AEXX">      0.00000000</i>
   <i name="HFALPHA">      0.00000000</i>
   <i name="MCALPHA">      0.00000000</i>
   <i name="ALDAX">      1.00000000</i>
   <i name="AGGAX">      1.00000000</i>
   <i name="ALDAC">      1.00000000</i>
   <i name="AGGAC">      1.00000000</i>
   <i type="int" name="NKREDX">     1</i>
   <i type="int" name="NKREDY">     1</i>
   <i type="int" name="NKREDZ">     1</i>
   <i type="logical" name="SHIFTRED"> F  </i>
   <i type="logical" name="ODDONLY"> F  </i>
   <i type="logical" name="EVENONLY"> F  </i>
   <i type="int" name="LMAXFOCK">     0</i>
   <i type="int" name="NMAXFOCKAE">     0</i>
   <i type="logical" name="LFOCKAEDFT"> F  </i>
   <i name="HFSCREEN">      0.00000000</i>
   <i name="HFSCREENC">      0.00000000</i>
   <i type="int" name="NBANDSGWLOW">     0</i>
  </separator>
  <separator name="vdW DFT" >
   <i type="logical" name="LUSE_VDW"> F  </i>
   <i name="Zab_VDW">     -0.84910000</i>
   <i name="PARAM1">      0.12340000</i>
   <i name="PARAM2">      1.00000000</i>
   <i name="PARAM3">      0.00000000</i>
  </separator>
  <separator name="model GW" >
   <i type="int" name="MODEL_GW">     0</i>
   <i name="MODEL_EPS0">    327.69450000</i>
   <i name="MODEL_ALPHA">      1.00000000</i>
  </separator>
  <separator name="linear response parameters" >
   <i type="logical" name="LEPSILON"> F  </i>
   <i type="logical" name="LRPA"> F  </i>
   <i type="logical" name="LNABLA"> F  </i>
   <i type="logical" name="LVEL"> F  </i>
   <i type="int" name="KINTER">     0</i>
   <i name="CSHIFT">      0.10000000</i>
   <i name="OMEGAMAX">     -1.00000000</i>
   <i name="DEG_THRESHOLD">      0.00200000</i>
  </separator>
  <separator name="orbital magnetization" >
   <i type="logical" name="NUCIND"> F  </i>
   <v name="MAGPOS">      0.00000000      0.00000000      0.00000000</v>
   <i type="logical" name="LNICSALL"> T  </i>
   <i type="logical" name="ORBITALMAG"> F  </i>
   <i type="logical" name="LMAGBLOCH"> F  </i>
   <i type="logical" name="LCHIMAG"> F  </i>
   <i type="logical" name="LGAUGE"> T  </i>
   <i type="int" name="MAGATOM">     0</i>
   <v name="MAGDIPOL">      0.00000000      0.00000000      0.00000000</v>
   <v name="AVECCONST">      0.00000000      0.00000000      0.00000000</v>
  </separator>
  <separator name="response functions" >
   <i type="logical" name="LADDER"> F  </i>
   <i type="logical" name="LFXC"> F  </i>
   <i type="logical" name="LHARTREE"> T  </i>
   <i type="int" name="IBSE">     0</i>
   <i type="logical" name="LTCTE"> F  </i>
   <i type="logical" name="LTETE"> F  </i>
   <i type="logical" name="LTRIPLET"> F  </i>
   <i type="logical" name="LFXCEPS"> F  </i>
   <i type="logical" name="L2ORDER"> F  </i>
   <i type="logical" name="LUSEW"> F  </i>
   <i name="ENCUTGW">     -2.00000000</i>
   <i name="ENCUTGWSOFT">     -2.00000000</i>
   <i name="ENCUTLF">     -1.00000000</i>
   <i type="int" name="LMAXMP2">    -1</i>
   <i name="SCISSOR">      0.00000000</i>
   <i type="int" name="NOMEGA">     0</i>
   <i type="int" name="NOMEGAR">     0</i>
   <i type="int" name="NBANDSGW">    -1</i>
   <i type="int" name="NBANDSO">    -1</i>
   <i type="int" name="NBANDSV">    -1</i>
   <i type="int" name="NELM">     1</i>
   <i type="int" name="DIM">     3</i>
   <i type="int" name="ANTIRES">     0</i>
   <i name="OMEGAMAX">    -30.00000000</i>
   <i name="OMEGATL">   -200.00000000</i>
   <i type="int" name="OMEGAGRID">     0</i>
   <i name="CSHIFT">     -0.10000000</i>
   <i type="logical" name="SELFENERGY"> F  </i>
   <i type="logical" name="LSPECTRAL"> F  </i>
   <i type="logical" name="ODDONLYGW"> F  </i>
   <i type="logical" name="EVENONLYGW"> F  </i>
   <i type="int" name="NKREDLFX">     1</i>
   <i type="int" name="NKREDLFY">     1</i>
   <i type="int" name="NKREDLFZ">     1</i>
   <i type="int" name="MAXMEM">  1800</i>
   <i type="int" name="TELESCOPE">     0</i>
  </separator>
 </parameters>
 <atominfo>
  <atoms>       2 </atoms>
  <types>       2 </types>
  <array name="atoms" >
   <dimension dim="1">ion</dimension>
   <field type="string">element</field>
   <field type="int">atomtype</field>
   <set>
    <rc><c>N </c><c>   1</c></rc>
    <rc><c>O </c><c>   2</c></rc>
   </set>
  </array>
  <array name="atomtypes" >
   <dimension dim="1">type</dimension>
   <field type="int">atomspertype</field>
   <field type="string">element</field>
   <field>mass</field>
   <field>valence</field>
   <field type="string">pseudopotential</field>
   <set>
    <rc><c>   1</c><c>N </c><c>     14.00100000</c><c>      5.00000000</c><c>  PAW_PBE N 08Apr2002                   </c></rc>
    <rc><c>   1</c><c>O </c><c>     16.00000000</c><c>      6.00000000</c><c>  PAW_PBE O 08Apr2002                   </c></rc>
   </set>
  </array>
 </atominfo>
 <structure name="initialpos" >
  <crystal>
   <varray name="basis" >
    <v>      10.10000000       0.00000000       0.00000000 </v>
    <v>       0.00000000      10.30000000       0.00000000 </v>
    <v>       0.00000000       0.00000000      10.50000000 </v>
   </varray>
   <i name="volume">   1092.31500000 </i>
   <varray name="rec_basis" >
    <v>       0.09900990       0.00000000       0.00000000 </v>
    <v>       0.00000000       0.09708738       0.00000000 </v>
    <v>       0.00000000       0.00000000       0.09523810 </v>
   </varray>
  </crystal>
  <varray name="positions" >
   <v>       0.00000000       0.00000000       0.00000000 </v>
   <v>       0.00000000       0.00000000       0.11428571 </v>
  </varray>
  <varray name="selective"  type="logical" >
   <v type="logical" >  F  F  T </v>
   <v type="logical" >  F  F  T </v>
  </varray>
  <nose>
   <v>      -3.00000000       0.00000000       0.00010000       0.00010000 </v>
  </nose>
 </structure>
 <calculation>
  <scstep>
   <time name="dav">    1.52    1.53</time>
   <time name="total">    4.26    4.27</time>
   <energy>
    <i name="alphaZ">      0.45022818 </i>
    <i name="ewald">    121.18601930 </i>
    <i name="hartreedc">   -694.37904165 </i>
    <i name="XCdc">     46.35056559 </i>
    <i name="pawpsdc">    551.20228741 </i>
    <i name="pawaedc">   -554.18101748 </i>
    <i name="eentropy">     -0.12486197 </i>
    <i name="bandstr">   -109.56807710 </i>
    <i name="atom">    696.73819845 </i>
    <i name="e_fr_energy">     57.67430073 </i>
    <i name="e_wo_entrp">     57.79916270 </i>
    <i name="e_0_energy">     57.73673172 </i>
   </energy>
  </scstep>
  <scstep>
   <time name="dav">    1.32    1.32</time>
   <time name="total">    1.32    1.32</time>
   <energy>
    <i name="e_fr_energy">      0.67835381 </i>
    <i name="e_wo_entrp">      0.78078241 </i>
    <i name="e_0_energy">      0.72956811 </i>
   </energy>
  </scstep>
  <scstep>
   <time name="dav">    1.72    1.72</time>
   <time name="total">    1.72    1.72</time>
   <energy>
    <i name="e_fr_energy">    -11.58433214 </i>
    <i name="e_wo_entrp">    -11.58178343 </i>
    <i name="e_0_energy">    -11.58305779 </i>
   </energy>
  </scstep>
  <scstep>
   <time name="dav">    1.59    1.60</time>
   <time name="total">    1.59    1.60</time>
   <energy>
    <i name="e_fr_energy">    -12.26511419 </i>
    <i name="e_wo_entrp">    -12.15240490 </i>
    <i name="e_0_energy">    -12.20875954 </i>
   </energy>
  </scstep>
  <scstep>
   <time name="dav">    1.56    1.56</time>
   <time name="total">    1.82    1.82</time>
   <energy>
    <i name="e_fr_energy">    -12.27474698 </i>
    <i name="e_wo_entrp">    -12.16191143 </i>
    <i name="e_0_energy">    -12.21832921 </i>
   </energy>
  </scstep>
  <scstep>
   <time name="diag">    0.26    0.27</time>
   <time name="diis">    1.07    1.07</time>
   <time name="orth">    0.02    0.02</time>
   <time name="total">    4.44    4.44</time>
   <energy>
    <i name="e_fr_energy">    -10.55722715 </i>
    <i name="e_wo_entrp">    -10.44440967 </i>
    <i name="e_0_energy">    -10.50081841 </i>
   </energy>
  </scstep>
  <scstep>
   <time name="diag">    0.23    0.23</time>
   <time name="diis">    0.79    0.80</time>
   <time name="orth">    0.02    0.01</time>
   <time name="total">    4.05    4.06</time>
   <energy>
    <i name="e_fr_energy">    -11.57370777 </i>
    <i name="e_wo_entrp">    -11.46094589 </i>
    <i name="e_0_energy">    -11.51732683 </i>
   </energy>
  </scstep>
  <scstep>
   <time name="diag">    0.28    0.28</time>
   <time name="diis">    1.10    1.09</time>
   <time name="orth">    0.02    0.02</time>
   <time name="total">    4.57    4.57</time>
   <energy>
    <i name="e_fr_energy">    -12.13427907 </i>
    <i name="e_wo_entrp">    -12.02174590 </i>
    <i name="e_0_energy">    -12.07801248 </i>
   </energy>
  </scstep>
  <scstep>
   <time name="diag">    0.22    0.22</time>
   <time name="diis">    0.79    0.79</time>
   <time name="orth">    0.01    0.01</time>
   <time name="total">    3.95    3.95</time>
   <energy>
    <i name="e_fr_energy">    -12.28095499 </i>
    <i name="e_wo_entrp">    -12.16876798 </i>
    <i name="e_0_energy">    -12.22486148 </i>
   </energy>
  </scstep>
  <scstep>
   <time name="diag">    0.28    0.28</time>
   <time name="diis">    1.08    1.09</time>
   <time name="orth">    0.02    0.02</time>
   <time name="total">    4.58    4.59</time>
   <energy>
    <i name="e_fr_energy">    -12.31492713 </i>
    <i name="e_wo_entrp">    -12.20322565 </i>
    <i name="e_0_energy">    -12.25907639 </i>
   </energy>
  </scstep>
  <scstep>
   <time name="diag">    0.30    0.30</time>
   <time name="diis">    1.04    1.04</time>
   <time name="orth">    0.02    0.02</time>
   <time name="total">    4.42    4.42</time>
   <energy>
    <i name="e_fr_energy">    -12.31858751 </i>
    <i name="e_wo_entrp">    -12.20702816 </i>
    <i name="e_0_energy">    -12.26280784 </i>
   </energy>
  </scstep>
  <scstep>
   <time name="diag">    0.23    0.23</time>
   <time name="diis">    0.72    0.72</time>
   <time name="orth">    0.02    0.02</time>
   <time name="total">    4.23    4.24</time>
   <energy>
    <i name="e_fr_energy">    -12.31914614 </i>
    <i name="e_wo_entrp">    -12.20699424 </i>
    <i name="e_0_energy">    -12.26307019 </i>
   </energy>
  </scstep>
  <scstep>
   <time name="diag">    0.28    0.28</time>
   <time name="diis">    0.85    0.85</time>
   <time name="orth">    0.02    0.02</time>
   <time name="total">    4.49    4.49</time>
   <energy>
    <i name="e_fr_energy">    -12.32027603 </i>
    <i name="e_wo_entrp">    -12.20777187 </i>
    <i name="e_0_energy">    -12.26402395 </i>
   </energy>
  </scstep>
  <scstep>
   <time name="diag">    0.22    0.22</time>
   <time name="diis">    0.54    0.55</time>
   <time name="orth">    0.02    0.01</time>
   <time name="total">    3.78    3.79</time>
   <energy>
    <i name="e_fr_energy">    -12.31979422 </i>
    <i name="e_wo_entrp">    -12.20722836 </i>
    <i name="e_0_energy">    -12.26351129 </i>
   </energy>
  </scstep>
  <scstep>
   <time name="diag">    0.28    0.28</time>
   <time name="diis">    0.81    0.81</time>
   <time name="orth">    0.02    0.02</time>
   <time name="total">    4.34    4.34</time>
   <energy>
    <i name="e_fr_energy">    -12.31886607 </i>
    <i name="e_wo_entrp">    -12.20634866 </i>
    <i name="e_0_energy">    -12.26260736 </i>
   </energy>
  </scstep>
  <scstep>
   <time name="diag">    0.22    0.22</time>
   <time name="diis">    0.62    0.62</time>
   <time name="orth">    0.02    0.01</time>
   <time name="total">    3.88    3.89</time>
   <energy>
    <i name="e_fr_energy">    -12.32010561 </i>
    <i name="e_wo_entrp">    -12.20750456 </i>
    <i name="e_0_energy">    -12.26380509 </i>
   </energy>
  </scstep>
  <scstep>
   <time name="diag">    0.28    0.28</time>
   <time name="diis">    0.92    0.92</time>
   <time name="orth">    0.02    0.02</time>
   <time name="total">    4.47    4.48</time>
   <energy>
    <i name="e_fr_energy">    -12.32064607 </i>
    <i name="e_wo_entrp">    -12.20792911 </i>
    <i name="e_0_energy">    -12.26428759 </i>
   </energy>
  </scstep>
  <scstep>
   <time name="diag">    0.22    0.22</time>
   <time name="diis">    0.68    0.68</time>
   <time name="orth">    0.01    0.01</time>
   <time name="total">    3.94    3.94</time>
   <energy>
    <i name="e_fr_energy">    -12.32019975 </i>
    <i name="e_wo_entrp">    -12.20736601 </i>
    <i name="e_0_energy">    -12.26378288 </i>
   </energy>
  </scstep>
  <scstep>
   <time name="diag">    0.28    0.28</time>
   <time name="diis">    0.79    0.79</time>
   <time name="orth">    0.02    0.02</time>
   <time name="total">    4.25    4.26</time>
   <energy>
    <i name="e_fr_energy">    -12.32132233 </i>
    <i name="e_wo_entrp">    -12.20848651 </i>
    <i name="e_0_energy">    -12.26490442 </i>
   </energy>
  </scstep>
  <scstep>
   <time name="diag">    0.26    0.26</time>
   <time name="diis">    0.70    0.70</time>
   <time name="orth">    0.02    0.02</time>
   <time name="total">    4.05    4.06</time>
   <energy>
    <i name="e_fr_energy">    -12.32156739 </i>
    <i name="e_wo_entrp">    -12.20874396 </i>
    <i name="e_0_energy">    -12.26515568 </i>
   </energy>
  </scstep>
  <scstep>
   <time name="diag">    0.28    0.28</time>
   <time name="diis">    0.71    0.71</time>
   <time name="orth">    0.02    0.02</time>
   <time name="total">    4.42    4.42</time>
   <energy>
    <i name="e_fr_energy">    -12.32166963 </i>
    <i name="e_wo_entrp">    -12.20884511 </i>
    <i name="e_0_energy">    -12.26525737 </i>
   </energy>
  </scstep>
  <scstep>
   <time name="diag">    0.27    0.27</time>
   <time name="diis">    0.62    0.62</time>
   <time name="orth">    0.02    0.02</time>
   <time name="total">    3.85    3.86</time>
   <energy>
    <i name="alphaZ">      0.45022818 </i>
    <i name="ewald">    121.18601930 </i>
    <i name="hartreedc">   -705.11539379 </i>
    <i name="XCdc">     46.88985343 </i>
    <i name="pawpsdc">    873.21441560 </i>
    <i name="pawaedc">   -876.24899146 </i>
    <i name="eentropy">     -0.11282396 </i>
    <i name="bandstr">   -169.32324213 </i>
    <i name="atom">    696.73819845 </i>
    <i name="e_fr_energy">    -12.32173638 </i>
    <i name="e_wo_entrp">    -12.20891242 </i>
    <i name="e_0_energy">    -12.26532440 </i>
   </energy>
  </scstep>
  <structure>
   <crystal>
    <varray name="basis" >
     <v>      10.10000000       0.00000000       0.00000000 </v>
     <v>       0.00000000      10.30000000       0.00000000 </v>
     <v>       0.00000000       0.00000000      10.50000000 </v>
    </varray>
    <i name="volume">   1092.31500000 </i>
    <varray name="rec_basis" >
     <v>       0.09900990       0.00000000       0.00000000 </v>
     <v>       0.00000000       0.09708738       0.00000000 </v>
     <v>       0.00000000       0.00000000       0.09523810 </v>
    </varray>
   </crystal>
   <varray name="positions" >
    <v>       0.00000000       0.00000000       0.00000000 </v>
    <v>       0.00000000       0.00000000       0.11428571 </v>
   </varray>
  </structure>
  <varray name="forces" >
   <v>       0.00000000       0.00000000       2.58269171 </v>
   <v>       0.00000000       0.00000000      -2.58269171 </v>
  </varray>
  <varray name="stress" >
   <v>      -1.76951490       0.00000000       0.00000000 </v>
   <v>       0.00000000      -1.73378840       0.00000000 </v>
   <v>       0.00000000       0.00000000      -6.08256961 </v>
  </varray>
  <energy>
   <i name="e_fr_energy">    -12.32173638 </i>
   <i name="e_wo_entrp">    -12.26532440 </i>
   <i name="e_0_energy">     -0.11282396 </i>
  </energy>
  <time name="totalsc">   90.02   90.12</time>
 </calculation>
 <calculation>
  <scstep>
   <time name="dav">    0.75    0.75</time>
   <time name="total">    3.69    3.69</time>
   <energy>
    <i name="alphaZ">      0.45022818 </i>
    <i name="ewald">    215.11562975 </i>
    <i name="hartreedc">   -760.40758570 </i>
    <i name="XCdc">     48.34327741 </i>
    <i name="pawpsdc">    873.22800221 </i>
    <i name="pawaedc">   -876.26261447 </i>
    <i name="eentropy">     -0.11281459 </i>
    <i name="bandstr">   -205.07773775 </i>
    <i name="atom">    696.73819845 </i>
    <i name="e_fr_energy">     -7.98541652 </i>
    <i name="e_wo_entrp">     -7.87260192 </i>
    <i name="e_0_energy">     -7.92900922 </i>
   </energy>
  </scstep>
  <scstep>
   <time name="diag">    0.11    0.10</time>
   <time name="diis">    0.41    0.41</time>
   <time name="orth">    0.01    0.01</time>
   <time name="total">    2.40    2.40</time>
   <energy>
    <i name="e_fr_energy">     -7.99374223 </i>
    <i name="e_wo_entrp">     -7.88095336 </i>
    <i name="e_0_energy">     -7.93734779 </i>
   </energy>
  </scstep>
  <scstep>
   <time name="diag">    0.10    0.10</time>
   <time name="diis">    0.42    0.42</time>
   <time name="orth">    0.01    0.01</time>
   <time name="total">    2.37    2.37</time>
   <energy>
    <i name="e_fr_energy">     -7.84053968 </i>
    <i name="e_wo_entrp">     -7.72775952 </i>
    <i name="e_0_energy">     -7.78414960 </i>
   </energy>
  </scstep>
  <scstep>
   <time name="diag">    0.10    0.10</time>
   <time name="diis">    0.43    0.43</time>
   <time name="orth">    0.01    0.01</time>
   <time name="total">    2.37    2.37</time>
   <energy>
    <i name="e_fr_energy">     -7.83765179 </i>
    <i name="e_wo_entrp">     -7.72489491 </i>
    <i name="e_0_energy">     -7.78127335 </i>
   </energy>
  </scstep>
  <scstep>
   <time name="diag">    0.10    0.10</time>
   <time name="diis">    0.44    0.43</time>
   <time name="orth">    0.00    0.01</time>
   <time name="total">    2.36    2.37</time>
   <energy>
    <i name="e_fr_energy">     -7.84115353 </i>
    <i name="e_wo_entrp">     -7.72839378 </i>
    <i name="e_0_energy">     -7.78477366 </i>
   </energy>
  </scstep>
  <scstep>
   <time name="diag">    0.10    0.10</time>
   <time name="diis">    0.41    0.41</time>
   <time name="orth">    0.01    0.01</time>
   <time name="total">    2.35    2.35</time>
   <energy>
    <i name="e_fr_energy">     -7.84125824 </i>
    <i name="e_wo_entrp">     -7.72847365 </i>
    <i name="e_0_energy">     -7.78486594 </i>
   </energy>
  </scstep>
  <scstep>
   <time name="diag">    0.10    0.10</time>
   <time name="diis">    0.38    0.38</time>
   <time name="orth">    0.01    0.01</time>
   <time name="total">    2.32    2.32</time>
   <energy>
    <i name="e_fr_energy">     -7.84433211 </i>
    <i name="e_wo_entrp">     -7.73151764 </i>
    <i name="e_0_energy">     -7.78792487 </i>
   </energy>
  </scstep>
  <scstep>
   <time name="diag">    0.10    0.10</time>
   <time name="diis">    0.38    0.38</time>
   <time name="orth">    0.00    0.01</time>
   <time name="total">    2.31    2.32</time>
   <energy>
    <i name="e_fr_energy">     -7.84663631 </i>
    <i name="e_wo_entrp">     -7.73379839 </i>
    <i name="e_0_energy">     -7.79021735 </i>
   </energy>
  </scstep>
  <scstep>
   <time name="diag">    0.10    0.10</time>
   <time name="diis">    0.32    0.32</time>
   <time name="orth">    0.01    0.01</time>
   <time name="total">    2.10    2.10</time>
   <energy>
    <i name="alphaZ">      0.45022818 </i>
    <i name="ewald">    215.11562975 </i>
    <i name="hartreedc">   -776.43541017 </i>
    <i name="XCdc">     49.21755682 </i>
    <i name="pawpsdc">   1219.76295554 </i>
    <i name="pawaedc">  -1223.51497845 </i>
    <i name="eentropy">     -0.11283790 </i>
    <i name="bandstr">   -189.06793170 </i>
    <i name="atom">    696.73819845 </i>
    <i name="e_fr_energy">     -7.84658947 </i>
    <i name="e_wo_entrp">     -7.73375158 </i>
    <i name="e_0_energy">     -7.79017053 </i>
   </energy>
  </scstep>
  <structure>
   <crystal>
    <varray name="basis" >
     <v>      10.10000000       0.00000000       0.00000000 </v>
     <v>       0.00000000      10.30000000       0.00000000 </v>
     <v>       0.00000000       0.00000000      10.50000000 </v>
    </varray>
    <i name="volume">   1092.31500000 </i>
    <varray name="rec_basis" >
     <v>       0.09900990       0.00000000       0.00000000 </v>
     <v>       0.00000000       0.09708738       0.00000000 </v>
     <v>       0.00000000       0.00000000       0.09523810 </v>
    </varray>
   </crystal>
   <varray name="positions" >
    <v>       0.00000000       0.00000000       0.01186628 </v>
    <v>       0.00000000       0.00000000       0.10241944 </v>
   </varray>
  </structure>
  <varray name="forces" >
   <v>       0.00000000       0.00000000     -53.58125044 </v>
   <v>       0.00000000       0.00000000      53.58125044 </v>
  </varray>
  <varray name="stress" >
   <v>      -2.31787987       0.00000000       0.00000000 </v>
   <v>       0.00000000      -2.09238110       0.00000000 </v>
   <v>       0.00000000       0.00000000      72.48470894 </v>
  </varray>
  <energy>
   <i name="e_fr_energy">     -7.84658947 </i>
   <i name="e_wo_entrp">     -7.79017053 </i>
   <i name="e_0_energy">     -0.11283790 </i>
  </energy>
  <time name="totalsc">   26.80   26.82</time>
 </calculation>
 <calculation>
  <scstep>
   <time name="dav">    0.48    0.49</time>
   <time name="total">    2.29    2.29</time>
   <energy>
    <i name="alphaZ">      0.45022818 </i>
    <i name="ewald">    124.63524193 </i>
    <i name="hartreedc">   -722.03676801 </i>
    <i name="XCdc">     47.78933935 </i>
    <i name="pawpsdc">   1218.58530366 </i>
    <i name="pawaedc">  -1222.33688931 </i>
    <i name="eentropy">     -0.11283635 </i>
    <i name="bandstr">   -156.47101799 </i>
    <i name="atom">    696.73819845 </i>
    <i name="e_fr_energy">    -12.75920009 </i>
    <i name="e_wo_entrp">    -12.64636375 </i>
    <i name="e_0_energy">    -12.70278192 </i>
   </energy>
  </scstep>
  <scstep>
   <time name="diag">    0.10    0.10</time>
   <time name="diis">    0.42    0.42</time>
   <time name="orth">    0.00    0.01</time>
   <time name="total">    2.34    2.34</time>
   <energy>
    <i name="e_fr_energy">    -12.38086510 </i>
    <i name="e_wo_entrp">    -12.26802720 </i>
    <i name="e_0_energy">    -12.32444615 </i>
   </energy>
  </scstep>
  <scstep>
   <time name="diag">    0.10    0.10</time>
   <time name="diis">    0.42    0.42</time>
   <time name="orth">    0.01    0.01</time>
   <time name="total">    2.34    2.34</time>
   <energy>
    <i name="e_fr_energy">    -12.32946306 </i>
    <i name="e_wo_entrp">    -12.21663130 </i>
    <i name="e_0_energy">    -12.27304718 </i>
   </energy>
  </scstep>
  <scstep>
   <time name="diag">    0.10    0.10</time>
   <time name="diis">    0.44    0.44</time>
   <time name="orth">    0.01    0.01</time>
   <time name="total">    2.35    2.36</time>
   <energy>
    <i name="e_fr_energy">    -12.34087011 </i>
    <i name="e_wo_entrp">    -12.22807081 </i>
    <i name="e_0_energy">    -12.28447046 </i>
   </energy>
  </scstep>
  <scstep>
   <time name="diag">    0.10    0.10</time>
   <time name="diis">    0.41    0.41</time>
   <time name="orth">    0.01    0.01</time>
   <time name="total">    2.35    2.35</time>
   <energy>
    <i name="e_fr_energy">    -12.34188545 </i>
    <i name="e_wo_entrp">    -12.22914538 </i>
    <i name="e_0_energy">    -12.28551542 </i>
   </energy>
  </scstep>
  <scstep>
   <time name="diag">    0.11    0.11</time>
   <time name="diis">    0.45    0.45</time>
   <time name="orth">    0.01    0.01</time>
   <time name="total">    2.39    2.39</time>
   <energy>
    <i name="e_fr_energy">    -12.34367804 </i>
    <i name="e_wo_entrp">    -12.23093502 </i>
    <i name="e_0_energy">    -12.28730653 </i>
   </energy>
  </scstep>
  <scstep>
   <time name="diag">    0.10    0.10</time>
   <time name="diis">    0.31    0.31</time>
   <time name="orth">    0.00    0.01</time>
   <time name="total">    2.23    2.23</time>
   <energy>
    <i name="e_fr_energy">    -12.34416023 </i>
    <i name="e_wo_entrp">    -12.23134937 </i>
    <i name="e_0_energy">    -12.28775480 </i>
   </energy>
  </scstep>
  <scstep>
   <time name="diag">    0.11    0.11</time>
   <time name="diis">    0.31    0.31</time>
   <time name="orth">    0.01    0.01</time>
   <time name="total">    2.24    2.23</time>
   <energy>
    <i name="e_fr_energy">    -12.34436838 </i>
    <i name="e_wo_entrp">    -12.23153054 </i>
    <i name="e_0_energy">    -12.28794946 </i>
   </energy>
  </scstep>
  <scstep>
   <time name="diag">    0.10    0.10</time>
   <time name="diis">    0.31    0.31</time>
   <time name="orth">    0.00    0.01</time>
   <time name="total">    2.23    2.23</time>
   <energy>
    <i name="e_fr_energy">    -12.34410734 </i>
    <i name="e_wo_entrp">    -12.23127433 </i>
    <i name="e_0_energy">    -12.28769084 </i>
   </energy>
  </scstep>
  <scstep>
   <time name="diag">    0.10    0.10</time>
   <time name="diis">    0.30    0.30</time>
   <time name="orth">    0.00    0.01</time>
   <time name="total">    2.06    2.07</time>
   <energy>
    <i name="alphaZ">      0.45022818 </i>
    <i name="ewald">    124.63524193 </i>
    <i name="hartreedc">   -707.83964356 </i>
    <i name="XCdc">     46.97319529 </i>
    <i name="pawpsdc">    887.49935696 </i>
    <i name="pawaedc">   -890.55151633 </i>
    <i name="eentropy">     -0.11282884 </i>
    <i name="bandstr">   -170.13625508 </i>
    <i name="atom">    696.73819845 </i>
    <i name="e_fr_energy">    -12.34402301 </i>
    <i name="e_wo_entrp">    -12.23119416 </i>
    <i name="e_0_energy">    -12.28760858 </i>
   </energy>
  </scstep>
  <structure>
   <crystal>
    <varray name="basis" >
     <v>      10.10000000       0.00000000       0.00000000 </v>
     <v>       0.00000000      10.30000000       0.00000000 </v>
     <v>       0.00000000       0.00000000      10.50000000 </v>
    </varray>
    <i name="volume">   1092.31500000 </i>
    <varray name="rec_basis" >
     <v>       0.09900990       0.00000000       0.00000000 </v>
     <v>       0.00000000       0.09708738       0.00000000 </v>
     <v>       0.00000000       0.00000000       0.09523810 </v>
    </varray>
   </crystal>
   <varray name="positions" >
    <v>       0.00000000       0.00000000       0.00054567 </v>
    <v>       0.00000000       0.00000000       0.11374005 </v>
   </varray>
  </structure>
  <varray name="forces" >
   <v>       0.00000000       0.00000000       1.62108562 </v>
   <v>       0.00000000       0.00000000      -1.62108562 </v>
  </varray>
  <varray name="stress" >
   <v>      -1.61973830       0.00000000       0.00000000 </v>
   <v>       0.00000000      -1.77310598       0.00000000 </v>
   <v>       0.00000000       0.00000000      -4.35007741 </v>
  </varray>
  <energy>
   <i name="e_fr_energy">    -12.34402301 </i>
   <i name="e_wo_entrp">    -12.28760858 </i>
   <i name="e_0_energy">     -0.11282884 </i>
  </energy>
  <time name="totalsc">   27.35   27.36</time>
 </calculation>
 <calculation>
  <scstep>
   <time name="dav">    0.53    0.53</time>
   <time name="total">    2.32    2.32</time>
   <energy>
    <i name="alphaZ">      0.45022818 </i>
    <i name="ewald">    126.76976914 </i>
    <i name="hartreedc">   -709.23986850 </i>
    <i name="XCdc">     47.00393996 </i>
    <i name="pawpsdc">    887.49103983 </i>
    <i name="pawaedc">   -890.54285846 </i>
    <i name="eentropy">     -0.11283587 </i>
    <i name="bandstr">   -170.91130966 </i>
    <i name="atom">    696.73819845 </i>
    <i name="e_fr_energy">    -12.35369694 </i>
    <i name="e_wo_entrp">    -12.24086107 </i>
    <i name="e_0_energy">    -12.29727901 </i>
   </energy>
  </scstep>
  <scstep>
   <time name="diag">    0.10    0.10</time>
   <time name="diis">    0.42    0.42</time>
   <time name="orth">    0.00    0.01</time>
   <time name="total">    2.32    2.33</time>
   <energy>
    <i name="e_fr_energy">    -12.35392861 </i>
    <i name="e_wo_entrp">    -12.24114485 </i>
    <i name="e_0_energy">    -12.29753673 </i>
   </energy>
  </scstep>
  <scstep>
   <time name="diag">    0.10    0.10</time>
   <time name="diis">    0.37    0.37</time>
   <time name="orth">    0.01    0.01</time>
   <time name="total">    2.15    2.15</time>
   <energy>
    <i name="alphaZ">      0.45022818 </i>
    <i name="ewald">    126.76976914 </i>
    <i name="hartreedc">   -709.65528813 </i>
    <i name="XCdc">     47.02746700 </i>
    <i name="pawpsdc">    892.93157113 </i>
    <i name="pawaedc">   -895.99242357 </i>
    <i name="eentropy">     -0.11258770 </i>
    <i name="bandstr">   -170.51092135 </i>
    <i name="atom">    696.73819845 </i>
    <i name="e_fr_energy">    -12.35398685 </i>
    <i name="e_wo_entrp">    -12.24139915 </i>
    <i name="e_0_energy">    -12.29769300 </i>
   </energy>
  </scstep>
  <structure>
   <crystal>
    <varray name="basis" >
     <v>      10.10000000       0.00000000       0.00000000 </v>
     <v>       0.00000000      10.30000000       0.00000000 </v>
     <v>       0.00000000       0.00000000      10.50000000 </v>
    </varray>
    <i name="volume">   1092.31500000 </i>
    <varray name="rec_basis" >
     <v>       0.09900990       0.00000000       0.00000000 </v>
     <v>       0.00000000       0.09708738       0.00000000 </v>
     <v>       0.00000000       0.00000000       0.09523810 </v>
    </varray>
   </crystal>
   <varray name="positions" >
    <v>       0.00000000       0.00000000       0.00087811 </v>
    <v>       0.00000000       0.00000000       0.11340760 </v>
   </varray>
  </structure>
  <varray name="forces" >
   <v>       0.00000000       0.00000000       0.99492050 </v>
   <v>       0.00000000       0.00000000      -0.99492050 </v>
  </varray>
  <varray name="stress" >
   <v>      -1.48555034       0.00000000       0.00000000 </v>
   <v>       0.00000000      -1.80514867       0.00000000 </v>
   <v>       0.00000000       0.00000000      -3.25922594 </v>
  </varray>
  <energy>
   <i name="e_fr_energy">    -12.35398685 </i>
   <i name="e_wo_entrp">    -12.29769300 </i>
   <i name="e_0_energy">     -0.11258770 </i>
  </energy>
  <time name="totalsc">   11.31   11.32</time>
 </calculation>
 <calculation>
  <scstep>
   <time name="dav">    0.53    0.53</time>
   <time name="total">    2.32    2.33</time>
   <energy>
    <i name="alphaZ">      0.45022818 </i>
    <i name="ewald">    130.21420467 </i>
    <i name="hartreedc">   -711.94080442 </i>
    <i name="XCdc">     47.08124916 </i>
    <i name="pawpsdc">    892.76618662 </i>
    <i name="pawaedc">   -895.82683874 </i>
    <i name="eentropy">     -0.11264222 </i>
    <i name="bandstr">   -171.72857007 </i>
    <i name="atom">    696.73819845 </i>
    <i name="e_fr_energy">    -12.35878835 </i>
    <i name="e_wo_entrp">    -12.24614613 </i>
    <i name="e_0_energy">    -12.30246724 </i>
   </energy>
  </scstep>
  <scstep>
   <time name="diag">    0.10    0.10</time>
   <time name="diis">    0.42    0.42</time>
   <time name="orth">    0.01    0.01</time>
   <time name="total">    2.33    2.33</time>
   <energy>
    <i name="e_fr_energy">    -12.35908999 </i>
    <i name="e_wo_entrp">    -12.24690611 </i>
    <i name="e_0_energy">    -12.30299805 </i>
   </energy>
  </scstep>
  <scstep>
   <time name="diag">    0.10    0.10</time>
   <time name="diis">    0.42    0.43</time>
   <time name="orth">    0.01    0.01</time>
   <time name="total">    2.34    2.35</time>
   <energy>
    <i name="e_fr_energy">    -12.35876470 </i>
    <i name="e_wo_entrp">    -12.24734987 </i>
    <i name="e_0_energy">    -12.30305729 </i>
   </energy>
  </scstep>
  <scstep>
   <time name="diag">    0.10    0.10</time>
   <time name="diis">    0.30    0.30</time>
   <time name="orth">    0.00    0.01</time>
   <time name="total">    2.22    2.22</time>
   <energy>
    <i name="e_fr_energy">    -12.35795328 </i>
    <i name="e_wo_entrp">    -12.24665617 </i>
    <i name="e_0_energy">    -12.30230473 </i>
   </energy>
  </scstep>
  <scstep>
   <time name="diag">    0.10    0.10</time>
   <time name="diis">    0.42    0.42</time>
   <time name="orth">    0.00    0.01</time>
   <time name="total">    2.34    2.34</time>
   <energy>
    <i name="e_fr_energy">    -12.34737789 </i>
    <i name="e_wo_entrp">    -12.23454358 </i>
    <i name="e_0_energy">    -12.29096073 </i>
   </energy>
  </scstep>
  <scstep>
   <time name="diag">    0.10    0.10</time>
   <time name="diis">    0.40    0.40</time>
   <time name="orth">    0.01    0.01</time>
   <time name="total">    2.32    2.32</time>
   <energy>
    <i name="e_fr_energy">    -12.35578802 </i>
    <i name="e_wo_entrp">    -12.24300198 </i>
    <i name="e_0_energy">    -12.29939500 </i>
   </energy>
  </scstep>
  <scstep>
   <time name="diag">    0.10    0.10</time>
   <time name="diis">    0.35    0.35</time>
   <time name="orth">    0.00    0.01</time>
   <time name="total">    2.27    2.27</time>
   <energy>
    <i name="e_fr_energy">    -12.35712773 </i>
    <i name="e_wo_entrp">    -12.24440501 </i>
    <i name="e_0_energy">    -12.30076637 </i>
   </energy>
  </scstep>
  <scstep>
   <time name="diag">    0.10    0.10</time>
   <time name="diis">    0.35    0.35</time>
   <time name="orth">    0.00    0.01</time>
   <time name="total">    2.28    2.28</time>
   <energy>
    <i name="e_fr_energy">    -12.35647249 </i>
    <i name="e_wo_entrp">    -12.24388235 </i>
    <i name="e_0_energy">    -12.30017742 </i>
   </energy>
  </scstep>
  <scstep>
   <time name="diag">    0.10    0.10</time>
   <time name="diis">    0.42    0.42</time>
   <time name="orth">    0.01    0.01</time>
   <time name="total">    2.35    2.35</time>
   <energy>
    <i name="e_fr_energy">    -12.35759621 </i>
    <i name="e_wo_entrp">    -12.24475843 </i>
    <i name="e_0_energy">    -12.30117732 </i>
   </energy>
  </scstep>
  <scstep>
   <time name="diag">    0.10    0.10</time>
   <time name="diis">    0.34    0.34</time>
   <time name="orth">    0.01    0.01</time>
   <time name="total">    2.28    2.28</time>
   <energy>
    <i name="e_fr_energy">    -12.35953515 </i>
    <i name="e_wo_entrp">    -12.24669778 </i>
    <i name="e_0_energy">    -12.30311646 </i>
   </energy>
  </scstep>
  <scstep>
   <time name="diag">    0.10    0.10</time>
   <time name="diis">    0.36    0.35</time>
   <time name="orth">    0.01    0.01</time>
   <time name="total">    2.29    2.29</time>
   <energy>
    <i name="e_fr_energy">    -12.35924787 </i>
    <i name="e_wo_entrp">    -12.24642971 </i>
    <i name="e_0_energy">    -12.30283879 </i>
   </energy>
  </scstep>
  <scstep>
   <time name="diag">    0.10    0.10</time>
   <time name="diis">    0.29    0.29</time>
   <time name="orth">    0.01    0.01</time>
   <time name="total">    2.24    2.24</time>
   <energy>
    <i name="e_fr_energy">    -12.35968812 </i>
    <i name="e_wo_entrp">    -12.24686187 </i>
    <i name="e_0_energy">    -12.30327500 </i>
   </energy>
  </scstep>
  <scstep>
   <time name="diag">    0.10    0.10</time>
   <time name="diis">    0.30    0.30</time>
   <time name="orth">    0.01    0.01</time>
   <time name="total">    2.25    2.25</time>
   <energy>
    <i name="e_fr_energy">    -12.35983686 </i>
    <i name="e_wo_entrp">    -12.24701584 </i>
    <i name="e_0_energy">    -12.30342635 </i>
   </energy>
  </scstep>
  <scstep>
   <time name="diag">    0.10    0.10</time>
   <time name="diis">    0.28    0.28</time>
   <time name="orth">    0.00    0.01</time>
   <time name="total">    2.07    2.07</time>
   <energy>
    <i name="alphaZ">      0.45022818 </i>
    <i name="ewald">    130.21420467 </i>
    <i name="hartreedc">   -712.58014069 </i>
    <i name="XCdc">     47.11593608 </i>
    <i name="pawpsdc">    909.74005287 </i>
    <i name="pawaedc">   -912.82394264 </i>
    <i name="eentropy">     -0.11282291 </i>
    <i name="bandstr">   -171.10160242 </i>
    <i name="atom">    696.73819845 </i>
    <i name="e_fr_energy">    -12.35988842 </i>
    <i name="e_wo_entrp">    -12.24706551 </i>
    <i name="e_0_energy">    -12.30347696 </i>
   </energy>
  </scstep>
  <structure>
   <crystal>
    <varray name="basis" >
     <v>      10.10000000       0.00000000       0.00000000 </v>
     <v>       0.00000000      10.30000000       0.00000000 </v>
     <v>       0.00000000       0.00000000      10.50000000 </v>
    </varray>
    <i name="volume">   1092.31500000 </i>
    <varray name="rec_basis" >
     <v>       0.09900990       0.00000000       0.00000000 </v>
     <v>       0.00000000       0.09708738       0.00000000 </v>
     <v>       0.00000000       0.00000000       0.09523810 </v>
    </varray>
   </crystal>
   <varray name="positions" >
    <v>       0.00000000       0.00000000       0.00140633 </v>
    <v>       0.00000000       0.00000000       0.11287938 </v>
   </varray>
  </structure>
  <varray name="forces" >
   <v>       0.00000000       0.00000000      -0.10569091 </v>
   <v>       0.00000000       0.00000000       0.10569091 </v>
  </varray>
  <varray name="stress" >
   <v>      -1.79935361       0.00000000       0.00000000 </v>
   <v>       0.00000000      -1.76057977       0.00000000 </v>
   <v>       0.00000000       0.00000000      -1.47098630 </v>
  </varray>
  <energy>
   <i name="e_fr_energy">    -12.35988842 </i>
   <i name="e_wo_entrp">    -12.30347696 </i>
   <i name="e_0_energy">     -0.11282291 </i>
  </energy>
  <time name="totalsc">   36.46   36.49</time>
 </calculation>
 <calculation>
  <scstep>
   <time name="dav">    0.51    0.51</time>
   <time name="total">    2.32    2.33</time>
   <energy>
    <i name="alphaZ">      0.45022818 </i>
    <i name="ewald">    129.88058093 </i>
    <i name="hartreedc">   -712.34419557 </i>
    <i name="XCdc">     47.10971430 </i>
    <i name="pawpsdc">    909.72710609 </i>
    <i name="pawaedc">   -912.81076031 </i>
    <i name="eentropy">     -0.11281941 </i>
    <i name="bandstr">   -170.99801498 </i>
    <i name="atom">    696.73819845 </i>
    <i name="e_fr_energy">    -12.35996232 </i>
    <i name="e_wo_entrp">    -12.24714291 </i>
    <i name="e_0_energy">    -12.30355261 </i>
   </energy>
  </scstep>
  <scstep>
   <time name="diag">    0.10    0.10</time>
   <time name="diis">    0.29    0.29</time>
   <time name="orth">    0.01    0.01</time>
   <time name="total">    2.08    2.08</time>
   <energy>
    <i name="alphaZ">      0.45022818 </i>
    <i name="ewald">    129.88058093 </i>
    <i name="hartreedc">   -712.32134023 </i>
    <i name="XCdc">     47.10829128 </i>
    <i name="pawpsdc">    909.11449117 </i>
    <i name="pawaedc">   -912.19754226 </i>
    <i name="eentropy">     -0.11282317 </i>
    <i name="bandstr">   -171.02005054 </i>
    <i name="atom">    696.73819845 </i>
    <i name="e_fr_energy">    -12.35996620 </i>
    <i name="e_wo_entrp">    -12.24714303 </i>
    <i name="e_0_energy">    -12.30355462 </i>
   </energy>
  </scstep>
  <structure>
   <crystal>
    <varray name="basis" >
     <v>      10.10000000       0.00000000       0.00000000 </v>
     <v>       0.00000000      10.30000000       0.00000000 </v>
     <v>       0.00000000       0.00000000      10.50000000 </v>
    </varray>
    <i name="volume">   1092.31500000 </i>
    <varray name="rec_basis" >
     <v>       0.09900990       0.00000000       0.00000000 </v>
     <v>       0.00000000       0.09708738       0.00000000 </v>
     <v>       0.00000000       0.00000000       0.09523810 </v>
    </varray>
   </crystal>
   <varray name="positions" >
    <v>       0.00000000       0.00000000       0.00135561 </v>
    <v>       0.00000000       0.00000000       0.11293010 </v>
   </varray>
  </structure>
  <varray name="forces" >
   <v>       0.00000000       0.00000000       0.00015991 </v>
   <v>       0.00000000       0.00000000      -0.00015991 </v>
  </varray>
  <varray name="stress" >
   <v>      -1.83141242       0.00000000       0.00000000 </v>
   <v>       0.00000000      -1.77837256       0.00000000 </v>
   <v>       0.00000000       0.00000000      -1.66014155 </v>
  </varray>
  <energy>
   <i name="e_fr_energy">    -12.35996620 </i>
   <i name="e_wo_entrp">    -12.30355462 </i>
   <i name="e_0_energy">     -0.11282317 </i>
  </energy>
  <time name="totalsc">    8.68    8.69</time>
  <eigenvalues>
   <array>
    <dimension dim="1">band</dimension>
    <dimension dim="2">kpoint</dimension>
    <dimension dim="3">spin</dimension>
    <field>eigene</field>
    <field>occ</field>
    <set>
     <set comment="spin 1">
      <set comment="kpoint 1">
       <r>  -31.1868    1.0000 </r>
       <r>  -16.8907    1.0000 </r>
       <r>  -12.6584    1.0000 </r>
       <r>  -12.6581    1.0000 </r>
       <r>  -11.5967    1.0000 </r>
       <r>   -4.5265    0.5064 </r>
       <r>   -4.5220    0.4936 </r>
       <r>   -0.3176    0.0000 </r>
       <r>    0.8723    0.0000 </r>
       <r>    0.9929    0.0000 </r>
      </set>
     </set>
     <set comment="spin 2">
      <set comment="kpoint 1">
       <r>  -30.7073    1.0000 </r>
       <r>  -16.0839    1.0000 </r>
       <r>  -11.8471    1.0000 </r>
       <r>  -11.8327    1.0000 </r>
       <r>  -11.0341    1.0000 </r>
       <r>   -3.3074    0.0000 </r>
       <r>   -3.2912    0.0000 </r>
       <r>   -0.1973    0.0000 </r>
       <r>    0.9855    0.0000 </r>
       <r>    1.1462    0.0000 </r>
      </set>
     </set>
    </set>
   </array>
  </eigenvalues>
  <separator name="orbital magnetization" >
   <v name="MAGDIPOLOUT">      0.00000000      0.00000000      0.00000000</v>
  </separator>
 </calculation>
 <structure name="finalpos" >
  <crystal>
   <varray name="basis" >
    <v>      10.10000000       0.00000000       0.00000000 </v>
    <v>       0.00000000      10.30000000       0.00000000 </v>
    <v>       0.00000000       0.00000000      10.50000000 </v>
   </varray>
   <i name="volume">   1092.31500000 </i>
   <varray name="rec_basis" >
    <v>       0.09900990       0.00000000       0.00000000 </v>
    <v>       0.00000000       0.09708738       0.00000000 </v>
    <v>       0.00000000       0.00000000       0.09523810 </v>
   </varray>
  </crystal>
  <varray name="positions" >
   <v>       0.00000000       0.00000000       0.00135561 </v>
   <v>       0.00000000       0.00000000       0.11293010 </v>
  </varray>
  <varray name="selective"  type="logical" >
   <v type="logical" >  F  F  T </v>
   <v type="logical" >  F  F  T </v>
  </varray>
  <nose>
   <v>      -3.00000000       0.00000000       0.00010000       0.00010000 </v>
  </nose>
 </structure>
</modeling>
