   8   8   0   0
  0.2392350E+02  0.5762862E-09  0.5762862E-09  0.5762862E-09  0.5000000E-15
  1.000000000000000E-004
  CAR 
 Crystal                                 
     10.00000000     -7.00000000 2001      3.32060254      1.00000000
     -7.000  0.7896E+00  0.7896E+00  0.6712E-02  0.6712E-02
     -6.992  0.6813E-02  0.6813E-02  0.6769E-02  0.6769E-02
     -6.983  0.6784E-02  0.6784E-02  0.6827E-02  0.6827E-02
     -6.974  0.6747E-02  0.6747E-02  0.6885E-02  0.6884E-02
     -6.966  0.6702E-02  0.6702E-02  0.6941E-02  0.6941E-02
     -6.957  0.6651E-02  0.6650E-02  0.6998E-02  0.6998E-02
     -6.949  0.6594E-02  0.6594E-02  0.7054E-02  0.7054E-02
     -6.941  0.6534E-02  0.6534E-02  0.7110E-02  0.7110E-02
     -6.932  0.6474E-02  0.6474E-02  0.7165E-02  0.7165E-02
     -6.923  0.6415E-02  0.6415E-02  0.7219E-02  0.7219E-02
     -6.915  0.6362E-02  0.6362E-02  0.7273E-02  0.7273E-02
     -6.907  0.6316E-02  0.6316E-02  0.7327E-02  0.7327E-02
     -6.898  0.6279E-02  0.6279E-02  0.7380E-02  0.7380E-02
     -6.889  0.6252E-02  0.6252E-02  0.7433E-02  0.7433E-02
     -6.881  0.6236E-02  0.6236E-02  0.7486E-02  0.7486E-02
     -6.872  0.6230E-02  0.6230E-02  0.7539E-02  0.7539E-02
     -6.864  0.6231E-02  0.6231E-02  0.7592E-02  0.7592E-02
     -6.856  0.6238E-02  0.6238E-02  0.7645E-02  0.7645E-02
     -6.847  0.6247E-02  0.6247E-02  0.7698E-02  0.7698E-02
     -6.838  0.6256E-02  0.6255E-02  0.7752E-02  0.7752E-02
     -6.830  0.6261E-02  0.6261E-02  0.7805E-02  0.7805E-02
     -6.822  0.6262E-02  0.6262E-02  0.7858E-02  0.7858E-02
     -6.813  0.6256E-02  0.6256E-02  0.7911E-02  0.7911E-02
     -6.804  0.6242E-02  0.6242E-02  0.7964E-02  0.7964E-02
     -6.796  0.6219E-02  0.6219E-02  0.8017E-02  0.8017E-02
     -6.787  0.6188E-02  0.6188E-02  0.8070E-02  0.8070E-02
     -6.779  0.6149E-02  0.6149E-02  0.8122E-02  0.8122E-02
     -6.771  0.6102E-02  0.6102E-02  0.8174E-02  0.8174E-02
     -6.762  0.6048E-02  0.6048E-02  0.8225E-02  0.8225E-02
     -6.753  0.5990E-02  0.5990E-02  0.8276E-02  0.8276E-02
     -6.745  0.5929E-02  0.5929E-02  0.8327E-02  0.8327E-02
     -6.737  0.5867E-02  0.5867E-02  0.8376E-02  0.8376E-02
     -6.728  0.5808E-02  0.5808E-02  0.8426E-02  0.8426E-02
     -6.720  0.5753E-02  0.5753E-02  0.8475E-02  0.8475E-02
     -6.711  0.5707E-02  0.5707E-02  0.8523E-02  0.8523E-02
     -6.702  0.5671E-02  0.5671E-02  0.8571E-02  0.8571E-02
     -6.694  0.5647E-02  0.5647E-02  0.8619E-02  0.8619E-02
     -6.686  0.5636E-02  0.5636E-02  0.8667E-02  0.8667E-02
     -6.677  0.5639E-02  0.5639E-02  0.8715E-02  0.8715E-02
     -6.668  0.5652E-02  0.5652E-02  0.8763E-02  0.8763E-02
     -6.660  0.5673E-02  0.5673E-02  0.8812E-02  0.8811E-02
     -6.652  0.5697E-02  0.5697E-02  0.8860E-02  0.8860E-02
     -6.643  0.5721E-02  0.5721E-02  0.8909E-02  0.8909E-02
     -6.635  0.5739E-02  0.5739E-02  0.8957E-02  0.8957E-02
     -6.626  0.5746E-02  0.5746E-02  0.9006E-02  0.9006E-02
     -6.617  0.5740E-02  0.5740E-02  0.9055E-02  0.9055E-02
     -6.609  0.5719E-02  0.5719E-02  0.9104E-02  0.9104E-02
     -6.601  0.5681E-02  0.5681E-02  0.9152E-02  0.9152E-02
     -6.592  0.5629E-02  0.5629E-02  0.9200E-02  0.9200E-02
     -6.583  0.5565E-02  0.5565E-02  0.9247E-02  0.9247E-02
     -6.575  0.5493E-02  0.5493E-02  0.9294E-02  0.9294E-02
     -6.566  0.5419E-02  0.5419E-02  0.9340E-02  0.9340E-02
     -6.558  0.5346E-02  0.5346E-02  0.9385E-02  0.9385E-02
     -6.550  0.5279E-02  0.5279E-02  0.9430E-02  0.9430E-02
     -6.541  0.5222E-02  0.5222E-02  0.9475E-02  0.9474E-02
     -6.532  0.5178E-02  0.5178E-02  0.9519E-02  0.9518E-02
     -6.524  0.5146E-02  0.5146E-02  0.9562E-02  0.9562E-02
     -6.516  0.5126E-02  0.5126E-02  0.9606E-02  0.9606E-02
     -6.507  0.5117E-02  0.5117E-02  0.9649E-02  0.9649E-02
     -6.498  0.5116E-02  0.5116E-02  0.9693E-02  0.9693E-02
     -6.490  0.5118E-02  0.5118E-02  0.9736E-02  0.9736E-02
     -6.481  0.5122E-02  0.5122E-02  0.9780E-02  0.9780E-02
     -6.473  0.5125E-02  0.5125E-02  0.9823E-02  0.9823E-02
     -6.465  0.5123E-02  0.5123E-02  0.9867E-02  0.9867E-02
     -6.456  0.5117E-02  0.5117E-02  0.9910E-02  0.9910E-02
     -6.447  0.5105E-02  0.5105E-02  0.9954E-02  0.9954E-02
     -6.439  0.5089E-02  0.5089E-02  0.9997E-02  0.9997E-02
     -6.431  0.5071E-02  0.5071E-02  0.1004E-01  0.1004E-01
     -6.422  0.5051E-02  0.5051E-02  0.1008E-01  0.1008E-01
     -6.413  0.5031E-02  0.5031E-02  0.1013E-01  0.1013E-01
     -6.405  0.5012E-02  0.5012E-02  0.1017E-01  0.1017E-01
     -6.396  0.4994E-02  0.4994E-02  0.1021E-01  0.1021E-01
     -6.388  0.4977E-02  0.4977E-02  0.1025E-01  0.1025E-01
     -6.380  0.4957E-02  0.4957E-02  0.1030E-01  0.1030E-01
     -6.371  0.4934E-02  0.4934E-02  0.1034E-01  0.1034E-01
     -6.362  0.4903E-02  0.4903E-02  0.1038E-01  0.1038E-01
     -6.354  0.4864E-02  0.4864E-02  0.1042E-01  0.1042E-01
     -6.345  0.4815E-02  0.4815E-02  0.1046E-01  0.1046E-01
     -6.337  0.4754E-02  0.4754E-02  0.1050E-01  0.1050E-01
     -6.329  0.4684E-02  0.4684E-02  0.1054E-01  0.1054E-01
     -6.320  0.4606E-02  0.4607E-02  0.1058E-01  0.1058E-01
     -6.311  0.4526E-02  0.4526E-02  0.1062E-01  0.1062E-01
     -6.303  0.4447E-02  0.4447E-02  0.1066E-01  0.1066E-01
     -6.295  0.4377E-02  0.4377E-02  0.1069E-01  0.1069E-01
     -6.286  0.4319E-02  0.4319E-02  0.1073E-01  0.1073E-01
     -6.277  0.4280E-02  0.4280E-02  0.1077E-01  0.1077E-01
     -6.269  0.4262E-02  0.4262E-02  0.1080E-01  0.1080E-01
     -6.261  0.4267E-02  0.4267E-02  0.1084E-01  0.1084E-01
     -6.252  0.4295E-02  0.4295E-02  0.1088E-01  0.1088E-01
     -6.244  0.4342E-02  0.4342E-02  0.1091E-01  0.1091E-01
     -6.235  0.4404E-02  0.4404E-02  0.1095E-01  0.1095E-01
     -6.226  0.4473E-02  0.4472E-02  0.1099E-01  0.1099E-01
     -6.218  0.4541E-02  0.4541E-02  0.1103E-01  0.1103E-01
     -6.210  0.4600E-02  0.4599E-02  0.1107E-01  0.1107E-01
     -6.201  0.4641E-02  0.4641E-02  0.1111E-01  0.1111E-01
     -6.192  0.4658E-02  0.4658E-02  0.1115E-01  0.1115E-01
     -6.184  0.4645E-02  0.4645E-02  0.1118E-01  0.1118E-01
     -6.175  0.4599E-02  0.4599E-02  0.1122E-01  0.1122E-01
     -6.167  0.4520E-02  0.4520E-02  0.1126E-01  0.1126E-01
     -6.159  0.4411E-02  0.4411E-02  0.1130E-01  0.1130E-01
     -6.150  0.4277E-02  0.4277E-02  0.1134E-01  0.1134E-01
     -6.141  0.4126E-02  0.4126E-02  0.1137E-01  0.1137E-01
     -6.133  0.3968E-02  0.3968E-02  0.1140E-01  0.1140E-01
     -6.125  0.3813E-02  0.3814E-02  0.1144E-01  0.1144E-01
     -6.116  0.3673E-02  0.3673E-02  0.1147E-01  0.1147E-01
     -6.107  0.3556E-02  0.3556E-02  0.1150E-01  0.1150E-01
     -6.099  0.3472E-02  0.3472E-02  0.1153E-01  0.1153E-01
     -6.090  0.3425E-02  0.3425E-02  0.1156E-01  0.1156E-01
     -6.082  0.3418E-02  0.3418E-02  0.1159E-01  0.1159E-01
     -6.074  0.3452E-02  0.3452E-02  0.1162E-01  0.1162E-01
     -6.065  0.3521E-02  0.3521E-02  0.1165E-01  0.1165E-01
     -6.056  0.3619E-02  0.3619E-02  0.1168E-01  0.1168E-01
     -6.048  0.3736E-02  0.3736E-02  0.1171E-01  0.1171E-01
     -6.040  0.3861E-02  0.3861E-02  0.1174E-01  0.1174E-01
     -6.031  0.3982E-02  0.3982E-02  0.1177E-01  0.1177E-01
     -6.022  0.4087E-02  0.4087E-02  0.1181E-01  0.1181E-01
     -6.014  0.4165E-02  0.4165E-02  0.1185E-01  0.1185E-01
     -6.005  0.4207E-02  0.4207E-02  0.1188E-01  0.1188E-01
     -5.997  0.4208E-02  0.4208E-02  0.1192E-01  0.1192E-01
     -5.989  0.4165E-02  0.4165E-02  0.1195E-01  0.1195E-01
     -5.980  0.4079E-02  0.4079E-02  0.1199E-01  0.1199E-01
     -5.971  0.3953E-02  0.3953E-02  0.1202E-01  0.1202E-01
     -5.963  0.3795E-02  0.3796E-02  0.1205E-01  0.1205E-01
     -5.954  0.3615E-02  0.3615E-02  0.1208E-01  0.1208E-01
     -5.946  0.3422E-02  0.3423E-02  0.1211E-01  0.1211E-01
     -5.938  0.3230E-02  0.3231E-02  0.1214E-01  0.1214E-01
     -5.929  0.3050E-02  0.3050E-02  0.1217E-01  0.1217E-01
     -5.920  0.2892E-02  0.2893E-02  0.1219E-01  0.1219E-01
     -5.912  0.2767E-02  0.2767E-02  0.1221E-01  0.1221E-01
     -5.904  0.2679E-02  0.2679E-02  0.1224E-01  0.1224E-01
     -5.895  0.2635E-02  0.2635E-02  0.1226E-01  0.1226E-01
     -5.886  0.2635E-02  0.2635E-02  0.1228E-01  0.1228E-01
     -5.878  0.2677E-02  0.2676E-02  0.1230E-01  0.1230E-01
     -5.870  0.2755E-02  0.2755E-02  0.1233E-01  0.1233E-01
     -5.861  0.2863E-02  0.2863E-02  0.1235E-01  0.1235E-01
     -5.853  0.2990E-02  0.2990E-02  0.1238E-01  0.1238E-01
     -5.844  0.3125E-02  0.3125E-02  0.1240E-01  0.1240E-01
     -5.835  0.3256E-02  0.3256E-02  0.1243E-01  0.1243E-01
     -5.827  0.3371E-02  0.3371E-02  0.1246E-01  0.1246E-01
     -5.819  0.3459E-02  0.3459E-02  0.1249E-01  0.1249E-01
     -5.810  0.3512E-02  0.3512E-02  0.1252E-01  0.1252E-01
     -5.801  0.3524E-02  0.3524E-02  0.1255E-01  0.1255E-01
     -5.793  0.3492E-02  0.3492E-02  0.1258E-01  0.1258E-01
     -5.784  0.3416E-02  0.3416E-02  0.1261E-01  0.1261E-01
     -5.776  0.3300E-02  0.3300E-02  0.1264E-01  0.1264E-01
     -5.768  0.3150E-02  0.3150E-02  0.1266E-01  0.1266E-01
     -5.759  0.2975E-02  0.2976E-02  0.1269E-01  0.1269E-01
     -5.750  0.2786E-02  0.2786E-02  0.1271E-01  0.1271E-01
     -5.742  0.2591E-02  0.2592E-02  0.1273E-01  0.1273E-01
     -5.733  0.2403E-02  0.2403E-02  0.1275E-01  0.1275E-01
     -5.725  0.2230E-02  0.2231E-02  0.1277E-01  0.1277E-01
     -5.716  0.2082E-02  0.2082E-02  0.1279E-01  0.1279E-01
     -5.708  0.1964E-02  0.1964E-02  0.1281E-01  0.1281E-01
     -5.700  0.1882E-02  0.1882E-02  0.1282E-01  0.1282E-01
     -5.691  0.1837E-02  0.1837E-02  0.1284E-01  0.1284E-01
     -5.683  0.1830E-02  0.1830E-02  0.1285E-01  0.1285E-01
     -5.674  0.1859E-02  0.1859E-02  0.1287E-01  0.1287E-01
     -5.665  0.1918E-02  0.1918E-02  0.1289E-01  0.1289E-01
     -5.657  0.2002E-02  0.2002E-02  0.1290E-01  0.1290E-01
     -5.649  0.2102E-02  0.2101E-02  0.1292E-01  0.1292E-01
     -5.640  0.2208E-02  0.2208E-02  0.1294E-01  0.1294E-01
     -5.631  0.2312E-02  0.2312E-02  0.1296E-01  0.1296E-01
     -5.623  0.2404E-02  0.2403E-02  0.1298E-01  0.1298E-01
     -5.614  0.2474E-02  0.2474E-02  0.1300E-01  0.1300E-01
     -5.606  0.2515E-02  0.2515E-02  0.1302E-01  0.1302E-01
     -5.598  0.2523E-02  0.2523E-02  0.1304E-01  0.1304E-01
     -5.589  0.2495E-02  0.2495E-02  0.1307E-01  0.1307E-01
     -5.580  0.2431E-02  0.2431E-02  0.1309E-01  0.1309E-01
     -5.572  0.2333E-02  0.2333E-02  0.1311E-01  0.1311E-01
     -5.563  0.2206E-02  0.2206E-02  0.1313E-01  0.1313E-01
     -5.555  0.2057E-02  0.2057E-02  0.1314E-01  0.1314E-01
     -5.546  0.1893E-02  0.1893E-02  0.1316E-01  0.1316E-01
     -5.538  0.1723E-02  0.1723E-02  0.1317E-01  0.1317E-01
     -5.529  0.1553E-02  0.1553E-02  0.1319E-01  0.1319E-01
     -5.521  0.1391E-02  0.1391E-02  0.1320E-01  0.1320E-01
     -5.513  0.1242E-02  0.1243E-02  0.1321E-01  0.1321E-01
     -5.504  0.1111E-02  0.1111E-02  0.1322E-01  0.1322E-01
     -5.495  0.9992E-03  0.9995E-03  0.1323E-01  0.1323E-01
     -5.487  0.9085E-03  0.9087E-03  0.1323E-01  0.1323E-01
     -5.479  0.8384E-03  0.8385E-03  0.1324E-01  0.1324E-01
     -5.470  0.7875E-03  0.7876E-03  0.1325E-01  0.1325E-01
     -5.462  0.7537E-03  0.7538E-03  0.1325E-01  0.1325E-01
     -5.453  0.7344E-03  0.7344E-03  0.1326E-01  0.1326E-01
     -5.444  0.7266E-03  0.7266E-03  0.1327E-01  0.1327E-01
     -5.436  0.7273E-03  0.7273E-03  0.1327E-01  0.1327E-01
     -5.428  0.7338E-03  0.7338E-03  0.1328E-01  0.1328E-01
     -5.419  0.7434E-03  0.7434E-03  0.1329E-01  0.1329E-01
     -5.410  0.7540E-03  0.7540E-03  0.1329E-01  0.1329E-01
     -5.402  0.7637E-03  0.7637E-03  0.1330E-01  0.1330E-01
     -5.393  0.7711E-03  0.7711E-03  0.1331E-01  0.1331E-01
     -5.385  0.7752E-03  0.7753E-03  0.1331E-01  0.1331E-01
     -5.377  0.7753E-03  0.7753E-03  0.1332E-01  0.1332E-01
     -5.368  0.7708E-03  0.7708E-03  0.1333E-01  0.1333E-01
     -5.359  0.7614E-03  0.7614E-03  0.1333E-01  0.1333E-01
     -5.351  0.7467E-03  0.7468E-03  0.1334E-01  0.1334E-01
     -5.342  0.7267E-03  0.7267E-03  0.1334E-01  0.1334E-01
     -5.334  0.7010E-03  0.7010E-03  0.1335E-01  0.1335E-01
     -5.325  0.6695E-03  0.6696E-03  0.1336E-01  0.1336E-01
     -5.317  0.6324E-03  0.6325E-03  0.1336E-01  0.1336E-01
     -5.308  0.5900E-03  0.5901E-03  0.1337E-01  0.1337E-01
     -5.300  0.5432E-03  0.5433E-03  0.1337E-01  0.1337E-01
     -5.292  0.4934E-03  0.4935E-03  0.1337E-01  0.1337E-01
     -5.283  0.4427E-03  0.4428E-03  0.1338E-01  0.1338E-01
     -5.274  0.3942E-03  0.3943E-03  0.1338E-01  0.1338E-01
     -5.266  0.3517E-03  0.3518E-03  0.1339E-01  0.1339E-01
     -5.258  0.3195E-03  0.3195E-03  0.1339E-01  0.1339E-01
     -5.249  0.3025E-03  0.3025E-03  0.1339E-01  0.1339E-01
     -5.240  0.3059E-03  0.3058E-03  0.1339E-01  0.1339E-01
     -5.232  0.3341E-03  0.3340E-03  0.1340E-01  0.1340E-01
     -5.223  0.3912E-03  0.3911E-03  0.1340E-01  0.1340E-01
     -5.215  0.4797E-03  0.4794E-03  0.1340E-01  0.1340E-01
     -5.207  0.6002E-03  0.5999E-03  0.1341E-01  0.1341E-01
     -5.198  0.7513E-03  0.7509E-03  0.1341E-01  0.1341E-01
     -5.189  0.9290E-03  0.9286E-03  0.1342E-01  0.1342E-01
     -5.181  0.1127E-02  0.1127E-02  0.1343E-01  0.1343E-01
     -5.172  0.1337E-02  0.1337E-02  0.1344E-01  0.1344E-01
     -5.164  0.1550E-02  0.1549E-02  0.1346E-01  0.1346E-01
     -5.155  0.1753E-02  0.1752E-02  0.1347E-01  0.1347E-01
     -5.147  0.1936E-02  0.1936E-02  0.1349E-01  0.1349E-01
     -5.138  0.2090E-02  0.2090E-02  0.1351E-01  0.1351E-01
     -5.130  0.2205E-02  0.2205E-02  0.1352E-01  0.1352E-01
     -5.122  0.2277E-02  0.2277E-02  0.1354E-01  0.1354E-01
     -5.113  0.2302E-02  0.2302E-02  0.1356E-01  0.1356E-01
     -5.104  0.2280E-02  0.2280E-02  0.1358E-01  0.1358E-01
     -5.096  0.2215E-02  0.2216E-02  0.1360E-01  0.1360E-01
     -5.088  0.2114E-02  0.2114E-02  0.1362E-01  0.1362E-01
     -5.079  0.1985E-02  0.1985E-02  0.1364E-01  0.1364E-01
     -5.071  0.1837E-02  0.1837E-02  0.1365E-01  0.1365E-01
     -5.062  0.1682E-02  0.1683E-02  0.1367E-01  0.1367E-01
     -5.053  0.1532E-02  0.1532E-02  0.1368E-01  0.1368E-01
     -5.045  0.1396E-02  0.1397E-02  0.1369E-01  0.1369E-01
     -5.037  0.1286E-02  0.1286E-02  0.1370E-01  0.1370E-01
     -5.028  0.1209E-02  0.1209E-02  0.1371E-01  0.1371E-01
     -5.019  0.1172E-02  0.1172E-02  0.1372E-01  0.1372E-01
     -5.011  0.1181E-02  0.1181E-02  0.1373E-01  0.1373E-01
     -5.002  0.1238E-02  0.1238E-02  0.1374E-01  0.1374E-01
     -4.994  0.1344E-02  0.1344E-02  0.1375E-01  0.1375E-01
     -4.986  0.1496E-02  0.1495E-02  0.1377E-01  0.1377E-01
     -4.977  0.1689E-02  0.1688E-02  0.1378E-01  0.1378E-01
     -4.968  0.1915E-02  0.1914E-02  0.1380E-01  0.1380E-01
     -4.960  0.2164E-02  0.2163E-02  0.1382E-01  0.1382E-01
     -4.951  0.2424E-02  0.2423E-02  0.1384E-01  0.1384E-01
     -4.943  0.2680E-02  0.2679E-02  0.1386E-01  0.1386E-01
     -4.934  0.2919E-02  0.2918E-02  0.1388E-01  0.1388E-01
     -4.926  0.3127E-02  0.3126E-02  0.1391E-01  0.1391E-01
     -4.918  0.3292E-02  0.3291E-02  0.1394E-01  0.1394E-01
     -4.909  0.3405E-02  0.3404E-02  0.1397E-01  0.1397E-01
     -4.900  0.3459E-02  0.3459E-02  0.1400E-01  0.1400E-01
     -4.892  0.3455E-02  0.3455E-02  0.1403E-01  0.1403E-01
     -4.883  0.3393E-02  0.3393E-02  0.1406E-01  0.1406E-01
     -4.875  0.3280E-02  0.3280E-02  0.1408E-01  0.1408E-01
     -4.867  0.3126E-02  0.3126E-02  0.1411E-01  0.1411E-01
     -4.858  0.2942E-02  0.2942E-02  0.1413E-01  0.1413E-01
     -4.849  0.2742E-02  0.2742E-02  0.1416E-01  0.1416E-01
     -4.841  0.2539E-02  0.2540E-02  0.1418E-01  0.1418E-01
     -4.832  0.2348E-02  0.2348E-02  0.1420E-01  0.1420E-01
     -4.824  0.2180E-02  0.2180E-02  0.1422E-01  0.1422E-01
     -4.816  0.2045E-02  0.2045E-02  0.1424E-01  0.1424E-01
     -4.807  0.1952E-02  0.1952E-02  0.1425E-01  0.1425E-01
     -4.798  0.1908E-02  0.1908E-02  0.1427E-01  0.1427E-01
     -4.790  0.1916E-02  0.1916E-02  0.1428E-01  0.1428E-01
     -4.781  0.1978E-02  0.1978E-02  0.1430E-01  0.1430E-01
     -4.773  0.2093E-02  0.2093E-02  0.1432E-01  0.1432E-01
     -4.764  0.2258E-02  0.2258E-02  0.1434E-01  0.1434E-01
     -4.756  0.2467E-02  0.2466E-02  0.1436E-01  0.1436E-01
     -4.748  0.2710E-02  0.2710E-02  0.1438E-01  0.1438E-01
     -4.739  0.2978E-02  0.2978E-02  0.1441E-01  0.1441E-01
     -4.730  0.3258E-02  0.3257E-02  0.1444E-01  0.1444E-01
     -4.722  0.3534E-02  0.3533E-02  0.1447E-01  0.1447E-01
     -4.713  0.3792E-02  0.3791E-02  0.1450E-01  0.1450E-01
     -4.705  0.4017E-02  0.4016E-02  0.1453E-01  0.1453E-01
     -4.697  0.4196E-02  0.4195E-02  0.1457E-01  0.1457E-01
     -4.688  0.4318E-02  0.4318E-02  0.1460E-01  0.1460E-01
     -4.679  0.4376E-02  0.4376E-02  0.1464E-01  0.1464E-01
     -4.671  0.4369E-02  0.4369E-02  0.1468E-01  0.1468E-01
     -4.662  0.4296E-02  0.4297E-02  0.1472E-01  0.1472E-01
     -4.654  0.4167E-02  0.4167E-02  0.1475E-01  0.1475E-01
     -4.646  0.3990E-02  0.3990E-02  0.1478E-01  0.1478E-01
     -4.637  0.3780E-02  0.3780E-02  0.1482E-01  0.1482E-01
     -4.628  0.3552E-02  0.3553E-02  0.1485E-01  0.1485E-01
     -4.620  0.3324E-02  0.3324E-02  0.1488E-01  0.1488E-01
     -4.611  0.3111E-02  0.3112E-02  0.1490E-01  0.1490E-01
     -4.603  0.2929E-02  0.2930E-02  0.1493E-01  0.1493E-01
     -4.595  0.2790E-02  0.2790E-02  0.1495E-01  0.1495E-01
     -4.586  0.2703E-02  0.2703E-02  0.1497E-01  0.1497E-01
     -4.577  0.2674E-02  0.2674E-02  0.1500E-01  0.1500E-01
     -4.569  0.2706E-02  0.2706E-02  0.1502E-01  0.1502E-01
     -4.560  0.2798E-02  0.2797E-02  0.1504E-01  0.1504E-01
     -4.552  0.2944E-02  0.2943E-02  0.1507E-01  0.1507E-01
     -4.543  0.3137E-02  0.3137E-02  0.1509E-01  0.1509E-01
     -4.535  0.3368E-02  0.3368E-02  0.1512E-01  0.1512E-01
     -4.527  0.3624E-02  0.3624E-02  0.1515E-01  0.1515E-01
     -4.518  0.3892E-02  0.3891E-02  0.1519E-01  0.1519E-01
     -4.509  0.4157E-02  0.4156E-02  0.1522E-01  0.1522E-01
     -4.501  0.4405E-02  0.4404E-02  0.1526E-01  0.1526E-01
     -4.492  0.4622E-02  0.4622E-02  0.1530E-01  0.1530E-01
     -4.484  0.4799E-02  0.4798E-02  0.1534E-01  0.1534E-01
     -4.476  0.4925E-02  0.4925E-02  0.1538E-01  0.1538E-01
     -4.467  0.4997E-02  0.4997E-02  0.1542E-01  0.1542E-01
     -4.458  0.5012E-02  0.5012E-02  0.1547E-01  0.1547E-01
     -4.450  0.4975E-02  0.4975E-02  0.1551E-01  0.1551E-01
     -4.441  0.4892E-02  0.4892E-02  0.1555E-01  0.1555E-01
     -4.433  0.4772E-02  0.4773E-02  0.1559E-01  0.1559E-01
     -4.425  0.4629E-02  0.4630E-02  0.1563E-01  0.1563E-01
     -4.416  0.4477E-02  0.4478E-02  0.1567E-01  0.1567E-01
     -4.407  0.4329E-02  0.4329E-02  0.1571E-01  0.1571E-01
     -4.399  0.4198E-02  0.4198E-02  0.1574E-01  0.1574E-01
     -4.390  0.4094E-02  0.4094E-02  0.1578E-01  0.1578E-01
     -4.382  0.4025E-02  0.4025E-02  0.1581E-01  0.1581E-01
     -4.373  0.3995E-02  0.3996E-02  0.1584E-01  0.1584E-01
     -4.365  0.4005E-02  0.4005E-02  0.1588E-01  0.1588E-01
     -4.356  0.4053E-02  0.4053E-02  0.1591E-01  0.1591E-01
     -4.348  0.4132E-02  0.4132E-02  0.1595E-01  0.1595E-01
     -4.339  0.4238E-02  0.4238E-02  0.1598E-01  0.1598E-01
     -4.331  0.4361E-02  0.4361E-02  0.1602E-01  0.1602E-01
     -4.322  0.4496E-02  0.4496E-02  0.1606E-01  0.1606E-01
     -4.314  0.4635E-02  0.4634E-02  0.1610E-01  0.1610E-01
     -4.306  0.4772E-02  0.4772E-02  0.1614E-01  0.1614E-01
     -4.297  0.4906E-02  0.4905E-02  0.1618E-01  0.1618E-01
     -4.288  0.5032E-02  0.5032E-02  0.1622E-01  0.1622E-01
     -4.280  0.5151E-02  0.5151E-02  0.1627E-01  0.1627E-01
     -4.271  0.5262E-02  0.5262E-02  0.1631E-01  0.1631E-01
     -4.263  0.5366E-02  0.5366E-02  0.1636E-01  0.1636E-01
     -4.255  0.5464E-02  0.5464E-02  0.1640E-01  0.1640E-01
     -4.246  0.5554E-02  0.5554E-02  0.1645E-01  0.1645E-01
     -4.237  0.5638E-02  0.5638E-02  0.1650E-01  0.1650E-01
     -4.229  0.5714E-02  0.5714E-02  0.1655E-01  0.1655E-01
     -4.220  0.5781E-02  0.5781E-02  0.1660E-01  0.1660E-01
     -4.212  0.5840E-02  0.5840E-02  0.1665E-01  0.1665E-01
     -4.204  0.5891E-02  0.5891E-02  0.1670E-01  0.1670E-01
     -4.195  0.5937E-02  0.5937E-02  0.1675E-01  0.1675E-01
     -4.186  0.5981E-02  0.5981E-02  0.1680E-01  0.1680E-01
     -4.178  0.6029E-02  0.6029E-02  0.1685E-01  0.1685E-01
     -4.169  0.6089E-02  0.6089E-02  0.1690E-01  0.1690E-01
     -4.161  0.6168E-02  0.6169E-02  0.1695E-01  0.1695E-01
     -4.152  0.6276E-02  0.6277E-02  0.1701E-01  0.1701E-01
     -4.144  0.6419E-02  0.6420E-02  0.1706E-01  0.1706E-01
     -4.136  0.6603E-02  0.6604E-02  0.1712E-01  0.1712E-01
     -4.127  0.6830E-02  0.6831E-02  0.1718E-01  0.1718E-01
     -4.118  0.7097E-02  0.7099E-02  0.1724E-01  0.1724E-01
     -4.110  0.7401E-02  0.7402E-02  0.1730E-01  0.1730E-01
     -4.101  0.7729E-02  0.7730E-02  0.1736E-01  0.1736E-01
     -4.093  0.8069E-02  0.8071E-02  0.1743E-01  0.1743E-01
     -4.085  0.8406E-02  0.8407E-02  0.1750E-01  0.1750E-01
     -4.076  0.8721E-02  0.8722E-02  0.1758E-01  0.1758E-01
     -4.067  0.8998E-02  0.8999E-02  0.1765E-01  0.1765E-01
     -4.059  0.9222E-02  0.9223E-02  0.1773E-01  0.1773E-01
     -4.050  0.9381E-02  0.9382E-02  0.1781E-01  0.1781E-01
     -4.042  0.9469E-02  0.9469E-02  0.1789E-01  0.1789E-01
     -4.034  0.9481E-02  0.9481E-02  0.1797E-01  0.1797E-01
     -4.025  0.9420E-02  0.9419E-02  0.1805E-01  0.1805E-01
     -4.016  0.9291E-02  0.9290E-02  0.1813E-01  0.1813E-01
     -4.008  0.9104E-02  0.9103E-02  0.1821E-01  0.1821E-01
     -3.999  0.8870E-02  0.8870E-02  0.1829E-01  0.1829E-01
     -3.991  0.8603E-02  0.8602E-02  0.1836E-01  0.1836E-01
     -3.982  0.8314E-02  0.8313E-02  0.1843E-01  0.1843E-01
     -3.974  0.8015E-02  0.8015E-02  0.1850E-01  0.1850E-01
     -3.965  0.7717E-02  0.7716E-02  0.1856E-01  0.1856E-01
     -3.957  0.7427E-02  0.7426E-02  0.1863E-01  0.1863E-01
     -3.948  0.7151E-02  0.7150E-02  0.1869E-01  0.1869E-01
     -3.940  0.6893E-02  0.6892E-02  0.1875E-01  0.1875E-01
     -3.931  0.6654E-02  0.6654E-02  0.1880E-01  0.1880E-01
     -3.923  0.6436E-02  0.6436E-02  0.1886E-01  0.1886E-01
     -3.914  0.6239E-02  0.6239E-02  0.1891E-01  0.1891E-01
     -3.906  0.6062E-02  0.6062E-02  0.1896E-01  0.1896E-01
     -3.897  0.5903E-02  0.5903E-02  0.1901E-01  0.1901E-01
     -3.889  0.5761E-02  0.5761E-02  0.1906E-01  0.1906E-01
     -3.880  0.5636E-02  0.5636E-02  0.1911E-01  0.1911E-01
     -3.872  0.5526E-02  0.5526E-02  0.1916E-01  0.1916E-01
     -3.863  0.5429E-02  0.5429E-02  0.1920E-01  0.1920E-01
     -3.855  0.5345E-02  0.5345E-02  0.1925E-01  0.1925E-01
     -3.846  0.5272E-02  0.5272E-02  0.1929E-01  0.1929E-01
     -3.838  0.5209E-02  0.5209E-02  0.1934E-01  0.1934E-01
     -3.829  0.5155E-02  0.5155E-02  0.1938E-01  0.1938E-01
     -3.821  0.5108E-02  0.5108E-02  0.1942E-01  0.1942E-01
     -3.812  0.5069E-02  0.5069E-02  0.1947E-01  0.1947E-01
     -3.804  0.5035E-02  0.5035E-02  0.1951E-01  0.1951E-01
     -3.795  0.5008E-02  0.5008E-02  0.1955E-01  0.1955E-01
     -3.787  0.4986E-02  0.4986E-02  0.1959E-01  0.1959E-01
     -3.778  0.4969E-02  0.4969E-02  0.1964E-01  0.1964E-01
     -3.770  0.4956E-02  0.4956E-02  0.1968E-01  0.1968E-01
     -3.761  0.4947E-02  0.4946E-02  0.1972E-01  0.1972E-01
     -3.753  0.4939E-02  0.4939E-02  0.1976E-01  0.1976E-01
     -3.744  0.4932E-02  0.4931E-02  0.1980E-01  0.1980E-01
     -3.736  0.4922E-02  0.4922E-02  0.1985E-01  0.1985E-01
     -3.727  0.4908E-02  0.4908E-02  0.1989E-01  0.1989E-01
     -3.719  0.4887E-02  0.4887E-02  0.1993E-01  0.1993E-01
     -3.710  0.4858E-02  0.4858E-02  0.1997E-01  0.1997E-01
     -3.702  0.4820E-02  0.4819E-02  0.2001E-01  0.2001E-01
     -3.693  0.4771E-02  0.4771E-02  0.2005E-01  0.2005E-01
     -3.685  0.4712E-02  0.4712E-02  0.2009E-01  0.2009E-01
     -3.676  0.4646E-02  0.4646E-02  0.2013E-01  0.2013E-01
     -3.668  0.4574E-02  0.4574E-02  0.2017E-01  0.2017E-01
     -3.659  0.4498E-02  0.4498E-02  0.2021E-01  0.2021E-01
     -3.651  0.4422E-02  0.4422E-02  0.2025E-01  0.2025E-01
     -3.642  0.4347E-02  0.4347E-02  0.2028E-01  0.2028E-01
     -3.634  0.4275E-02  0.4275E-02  0.2032E-01  0.2032E-01
     -3.625  0.4207E-02  0.4207E-02  0.2036E-01  0.2036E-01
     -3.617  0.4144E-02  0.4145E-02  0.2039E-01  0.2039E-01
     -3.608  0.4086E-02  0.4086E-02  0.2043E-01  0.2043E-01
     -3.600  0.4033E-02  0.4033E-02  0.2046E-01  0.2046E-01
     -3.591  0.3984E-02  0.3984E-02  0.2049E-01  0.2049E-01
     -3.583  0.3939E-02  0.3939E-02  0.2053E-01  0.2053E-01
     -3.574  0.3900E-02  0.3900E-02  0.2056E-01  0.2056E-01
     -3.566  0.3866E-02  0.3866E-02  0.2059E-01  0.2059E-01
     -3.557  0.3839E-02  0.3839E-02  0.2063E-01  0.2063E-01
     -3.549  0.3819E-02  0.3819E-02  0.2066E-01  0.2066E-01
     -3.540  0.3808E-02  0.3808E-02  0.2069E-01  0.2069E-01
     -3.532  0.3805E-02  0.3805E-02  0.2072E-01  0.2072E-01
     -3.523  0.3809E-02  0.3809E-02  0.2076E-01  0.2076E-01
     -3.515  0.3818E-02  0.3818E-02  0.2079E-01  0.2079E-01
     -3.506  0.3830E-02  0.3830E-02  0.2082E-01  0.2082E-01
     -3.498  0.3843E-02  0.3843E-02  0.2085E-01  0.2085E-01
     -3.489  0.3853E-02  0.3853E-02  0.2089E-01  0.2089E-01
     -3.481  0.3858E-02  0.3858E-02  0.2092E-01  0.2092E-01
     -3.472  0.3857E-02  0.3856E-02  0.2095E-01  0.2095E-01
     -3.464  0.3848E-02  0.3848E-02  0.2098E-01  0.2098E-01
     -3.455  0.3833E-02  0.3833E-02  0.2102E-01  0.2102E-01
     -3.447  0.3811E-02  0.3811E-02  0.2105E-01  0.2105E-01
     -3.438  0.3784E-02  0.3784E-02  0.2108E-01  0.2108E-01
     -3.430  0.3754E-02  0.3754E-02  0.2111E-01  0.2111E-01
     -3.421  0.3721E-02  0.3721E-02  0.2115E-01  0.2115E-01
     -3.413  0.3685E-02  0.3685E-02  0.2118E-01  0.2118E-01
     -3.404  0.3647E-02  0.3648E-02  0.2121E-01  0.2121E-01
     -3.396  0.3607E-02  0.3607E-02  0.2124E-01  0.2124E-01
     -3.387  0.3564E-02  0.3564E-02  0.2127E-01  0.2127E-01
     -3.379  0.3516E-02  0.3516E-02  0.2130E-01  0.2130E-01
     -3.370  0.3465E-02  0.3465E-02  0.2133E-01  0.2133E-01
     -3.362  0.3411E-02  0.3411E-02  0.2136E-01  0.2136E-01
     -3.353  0.3355E-02  0.3355E-02  0.2139E-01  0.2139E-01
     -3.345  0.3299E-02  0.3299E-02  0.2141E-01  0.2141E-01
     -3.336  0.3247E-02  0.3247E-02  0.2144E-01  0.2144E-01
     -3.328  0.3199E-02  0.3199E-02  0.2147E-01  0.2147E-01
     -3.319  0.3161E-02  0.3161E-02  0.2149E-01  0.2149E-01
     -3.311  0.3132E-02  0.3132E-02  0.2152E-01  0.2152E-01
     -3.302  0.3114E-02  0.3114E-02  0.2155E-01  0.2155E-01
     -3.294  0.3108E-02  0.3108E-02  0.2157E-01  0.2157E-01
     -3.285  0.3111E-02  0.3111E-02  0.2160E-01  0.2160E-01
     -3.277  0.3120E-02  0.3120E-02  0.2163E-01  0.2163E-01
     -3.268  0.3134E-02  0.3134E-02  0.2165E-01  0.2165E-01
     -3.260  0.3149E-02  0.3149E-02  0.2168E-01  0.2168E-01
     -3.251  0.3161E-02  0.3161E-02  0.2171E-01  0.2171E-01
     -3.243  0.3169E-02  0.3169E-02  0.2173E-01  0.2173E-01
     -3.234  0.3171E-02  0.3171E-02  0.2176E-01  0.2176E-01
     -3.226  0.3166E-02  0.3166E-02  0.2179E-01  0.2179E-01
     -3.217  0.3156E-02  0.3155E-02  0.2182E-01  0.2182E-01
     -3.209  0.3141E-02  0.3141E-02  0.2184E-01  0.2184E-01
     -3.200  0.3126E-02  0.3126E-02  0.2187E-01  0.2187E-01
     -3.192  0.3111E-02  0.3110E-02  0.2190E-01  0.2190E-01
     -3.183  0.3098E-02  0.3097E-02  0.2192E-01  0.2192E-01
     -3.175  0.3088E-02  0.3088E-02  0.2195E-01  0.2195E-01
     -3.166  0.3081E-02  0.3081E-02  0.2197E-01  0.2197E-01
     -3.158  0.3077E-02  0.3077E-02  0.2200E-01  0.2200E-01
     -3.149  0.3071E-02  0.3072E-02  0.2203E-01  0.2203E-01
     -3.141  0.3063E-02  0.3063E-02  0.2205E-01  0.2205E-01
     -3.132  0.3049E-02  0.3049E-02  0.2208E-01  0.2208E-01
     -3.124  0.3026E-02  0.3026E-02  0.2210E-01  0.2210E-01
     -3.115  0.2993E-02  0.2993E-02  0.2213E-01  0.2213E-01
     -3.107  0.2949E-02  0.2949E-02  0.2215E-01  0.2215E-01
     -3.098  0.2895E-02  0.2895E-02  0.2218E-01  0.2218E-01
     -3.090  0.2834E-02  0.2834E-02  0.2220E-01  0.2220E-01
     -3.081  0.2770E-02  0.2770E-02  0.2223E-01  0.2223E-01
     -3.073  0.2707E-02  0.2707E-02  0.2225E-01  0.2225E-01
     -3.064  0.2651E-02  0.2651E-02  0.2227E-01  0.2227E-01
     -3.056  0.2605E-02  0.2605E-02  0.2229E-01  0.2229E-01
     -3.047  0.2572E-02  0.2572E-02  0.2232E-01  0.2232E-01
     -3.039  0.2555E-02  0.2555E-02  0.2234E-01  0.2234E-01
     -3.030  0.2554E-02  0.2554E-02  0.2236E-01  0.2236E-01
     -3.022  0.2567E-02  0.2567E-02  0.2238E-01  0.2238E-01
     -3.013  0.2591E-02  0.2591E-02  0.2240E-01  0.2240E-01
     -3.005  0.2621E-02  0.2621E-02  0.2243E-01  0.2243E-01
     -2.996  0.2653E-02  0.2653E-02  0.2245E-01  0.2245E-01
     -2.988  0.2681E-02  0.2681E-02  0.2247E-01  0.2247E-01
     -2.979  0.2701E-02  0.2701E-02  0.2249E-01  0.2249E-01
     -2.971  0.2712E-02  0.2712E-02  0.2252E-01  0.2252E-01
     -2.962  0.2710E-02  0.2710E-02  0.2254E-01  0.2254E-01
     -2.954  0.2697E-02  0.2697E-02  0.2256E-01  0.2256E-01
     -2.946  0.2675E-02  0.2675E-02  0.2259E-01  0.2259E-01
     -2.937  0.2646E-02  0.2646E-02  0.2261E-01  0.2261E-01
     -2.928  0.2614E-02  0.2613E-02  0.2263E-01  0.2263E-01
     -2.920  0.2582E-02  0.2582E-02  0.2265E-01  0.2265E-01
     -2.911  0.2556E-02  0.2556E-02  0.2267E-01  0.2267E-01
     -2.903  0.2537E-02  0.2536E-02  0.2270E-01  0.2270E-01
     -2.894  0.2526E-02  0.2526E-02  0.2272E-01  0.2272E-01
     -2.886  0.2523E-02  0.2523E-02  0.2274E-01  0.2274E-01
     -2.877  0.2528E-02  0.2528E-02  0.2276E-01  0.2276E-01
     -2.869  0.2536E-02  0.2536E-02  0.2278E-01  0.2278E-01
     -2.861  0.2545E-02  0.2545E-02  0.2280E-01  0.2280E-01
     -2.852  0.2550E-02  0.2550E-02  0.2282E-01  0.2282E-01
     -2.843  0.2547E-02  0.2547E-02  0.2285E-01  0.2285E-01
     -2.835  0.2534E-02  0.2534E-02  0.2287E-01  0.2287E-01
     -2.826  0.2509E-02  0.2509E-02  0.2289E-01  0.2289E-01
     -2.818  0.2471E-02  0.2471E-02  0.2291E-01  0.2291E-01
     -2.809  0.2422E-02  0.2422E-02  0.2293E-01  0.2293E-01
     -2.801  0.2364E-02  0.2364E-02  0.2295E-01  0.2295E-01
     -2.792  0.2302E-02  0.2303E-02  0.2297E-01  0.2297E-01