<?xml version="1.0" encoding="ISO-8859-1"?>
<modeling>
 <generator>
  <i name="program" type="string">vasp </i>
  <i name="version" type="string">5.3.3  </i>
  <i name="subversion" type="string">18Dez12 (build Sep  7 2015 22:32:56) complex                          parallel </i>
  <i name="platform" type="string">LinuxIFC </i>
  <i name="date" type="string">2022 12 08 </i>
  <i name="time" type="string">18:40:20 </i>
 </generator>
 <incar>
  <i type="string" name="SYSTEM"> Crystal</i>
  <i type="int" name="ISTART">     0</i>
  <i type="string" name="PREC">normal</i>
  <i type="string" name="ALGO"> fast</i>
  <i type="int" name="NSIM">     4</i>
  <i type="int" name="ISPIN">     2</i>
  <i type="int" name="ICHARG">     2</i>
  <i type="int" name="NELMDL">   -10</i>
  <i type="int" name="NELMIN">     4</i>
  <i type="int" name="IBRION">     2</i>
  <i name="EDIFF">      0.00010000</i>
  <i name="EDIFFG">     -0.01000000</i>
  <i type="int" name="NSW">   300</i>
  <i name="ENCUT">    350.00000000</i>
  <i type="logical" name="LREAL"> F  </i>
  <i type="int" name="ISMEAR">     2</i>
  <i name="SIGMA">      0.10000000</i>
  <i type="logical" name="LWAVE"> F  </i>
  <i type="logical" name="LCHARG"> F  </i>
 </incar>
 <kpoints>
  <generation param="Gamma">
   <v type="int" name="divisions">       9        9        1 </v>
   <v name="usershift">      0.00000000       0.00000000       0.00000000 </v>
   <v name="genvec1">      0.11111111       0.00000000       0.00000000 </v>
   <v name="genvec2">      0.00000000       0.11111111       0.00000000 </v>
   <v name="genvec3">      0.00000000       0.00000000       1.00000000 </v>
   <v name="shift">      0.00000000       0.00000000       0.00000000 </v>
  </generation>
  <varray name="kpointlist" >
   <v>       0.00000000       0.00000000       0.00000000 </v>
   <v>       0.11111111       0.00000000       0.00000000 </v>
   <v>       0.22222222       0.00000000       0.00000000 </v>
   <v>       0.33333333       0.00000000       0.00000000 </v>
   <v>       0.44444444       0.00000000       0.00000000 </v>
   <v>       0.11111111       0.11111111       0.00000000 </v>
   <v>       0.22222222       0.11111111       0.00000000 </v>
   <v>       0.33333333       0.11111111       0.00000000 </v>
   <v>       0.44444444       0.11111111       0.00000000 </v>
   <v>      -0.44444444       0.11111111       0.00000000 </v>
   <v>      -0.33333333       0.11111111       0.00000000 </v>
   <v>      -0.22222222       0.11111111       0.00000000 </v>
   <v>      -0.11111111       0.11111111       0.00000000 </v>
   <v>       0.22222222       0.22222222       0.00000000 </v>
   <v>       0.33333333       0.22222222       0.00000000 </v>
   <v>       0.44444444       0.22222222       0.00000000 </v>
   <v>      -0.44444444       0.22222222       0.00000000 </v>
   <v>      -0.33333333       0.22222222       0.00000000 </v>
   <v>      -0.22222222       0.22222222       0.00000000 </v>
   <v>       0.33333333       0.33333333       0.00000000 </v>
   <v>       0.44444444       0.33333333       0.00000000 </v>
   <v>      -0.44444444       0.33333333       0.00000000 </v>
   <v>      -0.33333333       0.33333333       0.00000000 </v>
   <v>       0.44444444       0.44444444       0.00000000 </v>
   <v>      -0.44444444       0.44444444       0.00000000 </v>
  </varray>
  <varray name="weights" >
   <v>       0.01234568 </v>
   <v>       0.04938272 </v>
   <v>       0.04938272 </v>
   <v>       0.04938272 </v>
   <v>       0.04938272 </v>
   <v>       0.02469136 </v>
   <v>       0.04938272 </v>
   <v>       0.04938272 </v>
   <v>       0.04938272 </v>
   <v>       0.04938272 </v>
   <v>       0.04938272 </v>
   <v>       0.04938272 </v>
   <v>       0.02469136 </v>
   <v>       0.02469136 </v>
   <v>       0.04938272 </v>
   <v>       0.04938272 </v>
   <v>       0.04938272 </v>
   <v>       0.04938272 </v>
   <v>       0.02469136 </v>
   <v>       0.02469136 </v>
   <v>       0.04938272 </v>
   <v>       0.04938272 </v>
   <v>       0.02469136 </v>
   <v>       0.02469136 </v>
   <v>       0.02469136 </v>
  </varray>
 </kpoints>
 <parameters>
  <separator name="general" >
   <i type="string" name="SYSTEM">Crystal</i>
   <i type="logical" name="LCOMPAT"> F  </i>
  </separator>
  <separator name="electronic" >
   <i type="string" name="PREC">normal</i>
   <i name="ENMAX">    350.00000000</i>
   <i name="ENAUG">    385.84300000</i>
   <i name="EDIFF">      0.00010000</i>
   <i type="int" name="IALGO">    68</i>
   <i type="int" name="IWAVPR">    11</i>
   <i type="int" name="NBANDS">     9</i>
   <i name="NELECT">      8.00000000</i>
   <i type="int" name="TURBO">     0</i>
   <i type="int" name="IRESTART">     0</i>
   <i type="int" name="NREBOOT">     0</i>
   <i type="int" name="NMIN">     0</i>
   <i name="EREF">      0.00000000</i>
   <separator name="electronic smearing" >
    <i type="int" name="ISMEAR">     2</i>
    <i name="SIGMA">      0.10000000</i>
    <i name="KSPACING">      0.50000000</i>
    <i type="logical" name="KGAMMA"> T  </i>
   </separator>
   <separator name="electronic projectors" >
    <i type="logical" name="LREAL"> F  </i>
    <v name="ROPT">      0.00000000</v>
    <i type="int" name="LMAXPAW">  -100</i>
    <i type="int" name="LMAXMIX">     2</i>
    <i type="logical" name="NLSPLINE"> F  </i>
   </separator>
   <separator name="electronic startup" >
    <i type="int" name="ISTART">     0</i>
    <i type="int" name="ICHARG">     2</i>
    <i type="int" name="INIWAV">     1</i>
   </separator>
   <separator name="electronic spin" >
    <i type="int" name="ISPIN">     2</i>
    <i type="logical" name="LNONCOLLINEAR"> F  </i>
    <v name="MAGMOM">      1.00000000      1.00000000</v>
    <i name="NUPDOWN">     -1.00000000</i>
    <i type="logical" name="LSORBIT"> F  </i>
    <v name="SAXIS">      0.00000000      0.00000000      1.00000000</v>
    <i type="logical" name="LSPIRAL"> F  </i>
    <v name="QSPIRAL">      0.00000000      0.00000000      0.00000000</v>
    <i type="logical" name="LZEROZ"> F  </i>
   </separator>
   <separator name="electronic exchange-correlation" >
    <i type="logical" name="LASPH"> F  </i>
    <i type="logical" name="LMETAGGA"> F  </i>
   </separator>
   <separator name="electronic convergence" >
    <i type="int" name="NELM">    60</i>
    <i type="int" name="NELMDL">   -10</i>
    <i type="int" name="NELMIN">     4</i>
    <i name="ENINI">    350.00000000</i>
    <separator name="electronic convergence detail" >
     <i type="logical" name="LDIAG"> T  </i>
     <i type="logical" name="LSUBROT"> T  </i>
     <i name="WEIMIN">      0.00100000</i>
     <i name="EBREAK">      0.00000278</i>
     <i name="DEPER">      0.30000000</i>
     <i type="int" name="NRMM">     4</i>
     <i name="TIME">      0.40000000</i>
    </separator>
   </separator>
   <separator name="electronic mixer" >
    <i name="AMIX">      0.40000000</i>
    <i name="BMIX">      1.00000000</i>
    <i name="AMIN">      0.10000000</i>
    <i name="AMIX_MAG">      1.60000000</i>
    <i name="BMIX_MAG">      1.00000000</i>
    <separator name="electronic mixer details" >
     <i type="int" name="IMIX">     4</i>
     <i type="int" name="MAXMIX">   -45</i>
     <i name="WC">    100.00000000</i>
     <i type="int" name="INIMIX">     1</i>
     <i type="int" name="MIXPRE">     1</i>
     <i type="int" name="MREMOVE">     5</i>
    </separator>
   </separator>
   <separator name="electronic dipolcorrection" >
    <i type="logical" name="LDIPOL"> F  </i>
    <i type="logical" name="LMONO"> F  </i>
    <i type="int" name="IDIPOL">     0</i>
    <i name="EPSILON">      1.00000000</i>
    <v name="DIPOL">   -100.00000000   -100.00000000   -100.00000000</v>
    <i name="EFIELD">      0.00000000</i>
   </separator>
  </separator>
  <separator name="grids" >
   <i type="int" name="NGX">    18</i>
   <i type="int" name="NGY">    18</i>
   <i type="int" name="NGZ">    18</i>
   <i type="int" name="NGXF">    36</i>
   <i type="int" name="NGYF">    36</i>
   <i type="int" name="NGZF">    36</i>
   <i type="logical" name="ADDGRID"> F  </i>
  </separator>
  <separator name="ionic" >
   <i type="int" name="NSW">   300</i>
   <i type="int" name="IBRION">     2</i>
   <i type="int" name="ISIF">     2</i>
   <i name="PSTRESS">      0.00000000</i>
   <i name="EDIFFG">     -0.01000000</i>
   <i type="int" name="NFREE">     1</i>
   <i name="POTIM">      0.50000000</i>
   <i name="SMASS">     -3.00000000</i>
   <i name="SCALEE">      1.00000000</i>
  </separator>
  <separator name="ionic md" >
   <i name="TEBEG">      0.00010000</i>
   <i name="TEEND">      0.00010000</i>
   <i type="int" name="NBLOCK">     1</i>
   <i type="int" name="KBLOCK">   300</i>
   <i type="int" name="NPACO">   256</i>
   <i name="APACO">     16.00000000</i>
  </separator>
  <separator name="symmetry" >
   <i type="int" name="ISYM">     2</i>
   <i name="SYMPREC">      0.00001000</i>
  </separator>
  <separator name="dos" >
   <i type="logical" name="LORBIT"> F  </i>
   <v name="RWIGS">     -1.00000000</v>
   <i type="int" name="NEDOS">   301</i>
   <i name="EMIN">     10.00000000</i>
   <i name="EMAX">    -10.00000000</i>
   <i name="EFERMI">      0.00000000</i>
  </separator>
  <separator name="writing" >
   <i type="int" name="NWRITE">     2</i>
   <i type="logical" name="LWAVE"> F  </i>
   <i type="logical" name="LCHARG"> F  </i>
   <i type="logical" name="LPARD"> F  </i>
   <i type="logical" name="LVTOT"> F  </i>
   <i type="logical" name="LVHAR"> F  </i>
   <i type="logical" name="LELF"> F  </i>
   <i type="logical" name="LOPTICS"> F  </i>
   <v name="STM">      0.00000000      0.00000000      0.00000000      0.00000000      0.00000000      0.00000000      0.00000000</v>
  </separator>
  <separator name="performance" >
   <i type="int" name="NPAR">     1</i>
   <i type="int" name="NSIM">     4</i>
   <i type="int" name="NBLK">    -1</i>
   <i type="logical" name="LPLANE"> T  </i>
   <i type="logical" name="LSCALAPACK"> F  </i>
   <i type="logical" name="LSCAAWARE"> F  </i>
   <i type="logical" name="LSCALU"> F  </i>
   <i type="logical" name="LASYNC"> F  </i>
   <i type="logical" name="LORBITALREAL"> F  </i>
  </separator>
  <separator name="miscellaneous" >
   <i type="int" name="IDIOT">     3</i>
   <i type="logical" name="LMUSIC"> F  </i>
   <v name="POMASS">     72.61000000</v>
   <v name="DARWINR">      0.00000000</v>
   <v name="DARWINV">      1.00000000</v>
   <i type="logical" name="LCORR"> T  </i>
  </separator>
  <i type="logical" name="GGA_COMPAT"> T  </i>
  <i type="logical" name="LBERRY"> F  </i>
  <i type="int" name="ICORELEVEL">     0</i>
  <i type="logical" name="LDAU"> F  </i>
  <i type="int" name="I_CONSTRAINED_M">     0</i>
  <separator name="electronic exchange-correlation" >
   <i type="string" name="GGA">--</i>
   <i type="int" name="VOSKOWN">     0</i>
   <i type="logical" name="LHFCALC"> F  </i>
   <i type="string" name="PRECFOCK"></i>
   <i type="logical" name="LSYMGRAD"> F  </i>
   <i type="logical" name="LHFONE"> F  </i>
   <i type="logical" name="LRHFCALC"> F  </i>
   <i type="logical" name="LTHOMAS"> F  </i>
   <i type="logical" name="LMODELHF"> F  </i>
   <i name="ENCUT4O">     -1.00000000</i>
   <i type="int" name="EXXOEP">     0</i>
   <i type="int" name="FOURORBIT">     0</i>
   <i name="AEXX">      0.00000000</i>
   <i name="HFALPHA">      0.00000000</i>
   <i name="MCALPHA">      0.00000000</i>
   <i name="ALDAX">      1.00000000</i>
   <i name="AGGAX">      1.00000000</i>
   <i name="ALDAC">      1.00000000</i>
   <i name="AGGAC">      1.00000000</i>
   <i type="int" name="NKREDX">     1</i>
   <i type="int" name="NKREDY">     1</i>
   <i type="int" name="NKREDZ">     1</i>
   <i type="logical" name="SHIFTRED"> F  </i>
   <i type="logical" name="ODDONLY"> F  </i>
   <i type="logical" name="EVENONLY"> F  </i>
   <i type="int" name="LMAXFOCK">     0</i>
   <i type="int" name="NMAXFOCKAE">     0</i>
   <i type="logical" name="LFOCKAEDFT"> F  </i>
   <i name="HFSCREEN">      0.00000000</i>
   <i name="HFSCREENC">      0.00000000</i>
   <i type="int" name="NBANDSGWLOW">     0</i>
  </separator>
  <separator name="vdW DFT" >
   <i type="logical" name="LUSE_VDW"> F  </i>
   <i name="Zab_VDW">     -0.84910000</i>
   <i name="PARAM1">      0.12340000</i>
   <i name="PARAM2">      1.00000000</i>
   <i name="PARAM3">      0.00000000</i>
  </separator>
  <separator name="model GW" >
   <i type="int" name="MODEL_GW">     0</i>
   <i name="MODEL_EPS0">     13.88947500</i>
   <i name="MODEL_ALPHA">      1.00000000</i>
  </separator>
  <separator name="linear response parameters" >
   <i type="logical" name="LEPSILON"> F  </i>
   <i type="logical" name="LRPA"> F  </i>
   <i type="logical" name="LNABLA"> F  </i>
   <i type="logical" name="LVEL"> F  </i>
   <i type="int" name="KINTER">     0</i>
   <i name="CSHIFT">      0.10000000</i>
   <i name="OMEGAMAX">     -1.00000000</i>
   <i name="DEG_THRESHOLD">      0.00200000</i>
  </separator>
  <separator name="orbital magnetization" >
   <i type="logical" name="NUCIND"> F  </i>
   <v name="MAGPOS">      0.00000000      0.00000000      0.00000000</v>
   <i type="logical" name="LNICSALL"> T  </i>
   <i type="logical" name="ORBITALMAG"> F  </i>
   <i type="logical" name="LMAGBLOCH"> F  </i>
   <i type="logical" name="LCHIMAG"> F  </i>
   <i type="logical" name="LGAUGE"> T  </i>
   <i type="int" name="MAGATOM">     0</i>
   <v name="MAGDIPOL">      0.00000000      0.00000000      0.00000000</v>
   <v name="AVECCONST">      0.00000000      0.00000000      0.00000000</v>
  </separator>
  <separator name="response functions" >
   <i type="logical" name="LADDER"> F  </i>
   <i type="logical" name="LFXC"> F  </i>
   <i type="logical" name="LHARTREE"> T  </i>
   <i type="int" name="IBSE">     0</i>
   <i type="logical" name="LTCTE"> F  </i>
   <i type="logical" name="LTETE"> F  </i>
   <i type="logical" name="LTRIPLET"> F  </i>
   <i type="logical" name="LFXCEPS"> F  </i>
   <i type="logical" name="L2ORDER"> F  </i>
   <i type="logical" name="LUSEW"> F  </i>
   <i name="ENCUTGW">     -2.00000000</i>
   <i name="ENCUTGWSOFT">     -2.00000000</i>
   <i name="ENCUTLF">     -1.00000000</i>
   <i type="int" name="LMAXMP2">    -1</i>
   <i name="SCISSOR">      0.00000000</i>
   <i type="int" name="NOMEGA">     0</i>
   <i type="int" name="NOMEGAR">     0</i>
   <i type="int" name="NBANDSGW">    -1</i>
   <i type="int" name="NBANDSO">    -1</i>
   <i type="int" name="NBANDSV">    -1</i>
   <i type="int" name="NELM">     1</i>
   <i type="int" name="DIM">     3</i>
   <i type="int" name="ANTIRES">     0</i>
   <i name="OMEGAMAX">    -30.00000000</i>
   <i name="OMEGATL">   -200.00000000</i>
   <i type="int" name="OMEGAGRID">     0</i>
   <i name="CSHIFT">     -0.10000000</i>
   <i type="logical" name="SELFENERGY"> F  </i>
   <i type="logical" name="LSPECTRAL"> F  </i>
   <i type="logical" name="ODDONLYGW"> F  </i>
   <i type="logical" name="EVENONLYGW"> F  </i>
   <i type="int" name="NKREDLFX">     1</i>
   <i type="int" name="NKREDLFY">     1</i>
   <i type="int" name="NKREDLFZ">     1</i>
   <i type="int" name="MAXMEM">  1800</i>
   <i type="int" name="TELESCOPE">     0</i>
  </separator>
 </parameters>
 <atominfo>
  <atoms>       2 </atoms>
  <types>       1 </types>
  <array name="atoms" >
   <dimension dim="1">ion</dimension>
   <field type="string">element</field>
   <field type="int">atomtype</field>
   <set>
    <rc><c>Ge</c><c>   1</c></rc>
    <rc><c>Ge</c><c>   1</c></rc>
   </set>
  </array>
  <array name="atomtypes" >
   <dimension dim="1">type</dimension>
   <field type="int">atomspertype</field>
   <field type="string">element</field>
   <field>mass</field>
   <field>valence</field>
   <field type="string">pseudopotential</field>
   <set>
    <rc><c>   2</c><c>Ge</c><c>     72.61000000</c><c>      4.00000000</c><c>  PAW_PBE Ge 05Jan2001                  </c></rc>
   </set>
  </array>
 </atominfo>
 <structure name="initialpos" >
  <crystal>
   <varray name="basis" >
    <v>       2.85000000       2.85000000       0.00000000 </v>
    <v>       0.00000000       2.85000000       2.85000000 </v>
    <v>       2.85000000       0.00000000       2.85000000 </v>
   </varray>
   <i name="volume">     46.29825000 </i>
   <varray name="rec_basis" >
    <v>       0.17543860       0.17543860      -0.17543860 </v>
    <v>      -0.17543860       0.17543860       0.17543860 </v>
    <v>       0.17543860      -0.17543860       0.17543860 </v>
   </varray>
  </crystal>
  <varray name="positions" >
   <v>       0.00000000       0.00000000       0.00000000 </v>
   <v>       0.25000000       0.25000000       0.25000000 </v>
  </varray>
 </structure>
 <calculation>
  <scstep>
   <time name="dav">    0.94    0.95</time>
   <time name="total">    1.08    1.09</time>
   <energy>
    <i name="alphaZ">     16.51313525 </i>
    <i name="ewald">   -217.73683164 </i>
    <i name="hartreedc">    -12.99673835 </i>
    <i name="XCdc">    -14.89049384 </i>
    <i name="pawpsdc">    176.12489837 </i>
    <i name="pawaedc">   -147.11360559 </i>
    <i name="eentropy">      0.00057154 </i>
    <i name="bandstr">      2.90547021 </i>
    <i name="atom">    209.99095002 </i>
    <i name="e_fr_energy">     12.79735596 </i>
    <i name="e_wo_entrp">     12.79678442 </i>
    <i name="e_0_energy">     12.79721307 </i>
   </energy>
  </scstep>
  <scstep>
   <time name="dav">    0.78    0.78</time>
   <time name="total">    0.78    0.79</time>
   <energy>
    <i name="e_fr_energy">     -5.30692670 </i>
    <i name="e_wo_entrp">     -5.30671858 </i>
    <i name="e_0_energy">     -5.30687467 </i>
   </energy>
  </scstep>
  <scstep>
   <time name="dav">    0.68    0.67</time>
   <time name="total">    0.68    0.68</time>
   <energy>
    <i name="e_fr_energy">     -5.76093578 </i>
    <i name="e_wo_entrp">     -5.75985546 </i>
    <i name="e_0_energy">     -5.76066570 </i>
   </energy>
  </scstep>
  <scstep>
   <time name="dav">    0.71    0.71</time>
   <time name="total">    0.72    0.71</time>
   <energy>
    <i name="e_fr_energy">     -5.76214403 </i>
    <i name="e_wo_entrp">     -5.76106360 </i>
    <i name="e_0_energy">     -5.76187392 </i>
   </energy>
  </scstep>
  <scstep>
   <time name="dav">    0.62    0.62</time>
   <time name="total">    0.62    0.63</time>
   <energy>
    <i name="e_fr_energy">     -5.76214553 </i>
    <i name="e_wo_entrp">     -5.76106509 </i>
    <i name="e_0_energy">     -5.76187542 </i>
   </energy>
  </scstep>
  <scstep>
   <time name="dav">    0.59    0.59</time>
   <time name="total">    0.59    0.59</time>
   <energy>
    <i name="e_fr_energy">     -5.76214553 </i>
    <i name="e_wo_entrp">     -5.76106509 </i>
    <i name="e_0_energy">     -5.76187542 </i>
   </energy>
  </scstep>
  <scstep>
   <time name="dav">    0.42    0.42</time>
   <time name="total">    0.42    0.42</time>
   <energy>
    <i name="e_fr_energy">     -5.76214553 </i>
    <i name="e_wo_entrp">     -5.76106509 </i>
    <i name="e_0_energy">     -5.76187542 </i>
   </energy>
  </scstep>
  <scstep>
   <time name="dav">    0.40    0.40</time>
   <time name="total">    0.40    0.40</time>
   <energy>
    <i name="e_fr_energy">     -5.76214553 </i>
    <i name="e_wo_entrp">     -5.76106509 </i>
    <i name="e_0_energy">     -5.76187542 </i>
   </energy>
  </scstep>
  <scstep>
   <time name="dav">    0.38    0.39</time>
   <time name="total">    0.39    0.39</time>
   <energy>
    <i name="e_fr_energy">     -5.76214553 </i>
    <i name="e_wo_entrp">     -5.76106509 </i>
    <i name="e_0_energy">     -5.76187542 </i>
   </energy>
  </scstep>
  <scstep>
   <time name="dav">    0.38    0.38</time>
   <time name="total">    0.44    0.44</time>
   <energy>
    <i name="e_fr_energy">     -5.76214553 </i>
    <i name="e_wo_entrp">     -5.76106509 </i>
    <i name="e_0_energy">     -5.76187542 </i>
   </energy>
  </scstep>
  <scstep>
   <time name="diag">    0.12    0.12</time>
   <time name="diis">    0.73    0.73</time>
   <time name="orth">    0.02    0.01</time>
   <time name="total">    1.08    1.08</time>
   <energy>
    <i name="e_fr_energy">     -6.05113822 </i>
    <i name="e_wo_entrp">     -6.05100313 </i>
    <i name="e_0_energy">     -6.05110445 </i>
   </energy>
  </scstep>
  <scstep>
   <time name="diag">    0.12    0.12</time>
   <time name="diis">    0.46    0.47</time>
   <time name="orth">    0.01    0.01</time>
   <time name="total">    0.77    0.77</time>
   <energy>
    <i name="e_fr_energy">     -6.00605357 </i>
    <i name="e_wo_entrp">     -6.00538580 </i>
    <i name="e_0_energy">     -6.00588663 </i>
   </energy>
  </scstep>
  <scstep>
   <time name="diag">    0.12    0.12</time>
   <time name="diis">    0.46    0.46</time>
   <time name="orth">    0.00    0.01</time>
   <time name="total">    0.75    0.76</time>
   <energy>
    <i name="e_fr_energy">     -6.01119572 </i>
    <i name="e_wo_entrp">     -6.01123110 </i>
    <i name="e_0_energy">     -6.01120456 </i>
   </energy>
  </scstep>
  <scstep>
   <time name="diag">    0.12    0.12</time>
   <time name="diis">    0.46    0.46</time>
   <time name="orth">    0.00    0.01</time>
   <time name="total">    0.70    0.70</time>
   <energy>
    <i name="alphaZ">     16.51313525 </i>
    <i name="ewald">   -217.73683164 </i>
    <i name="hartreedc">    -17.10840499 </i>
    <i name="XCdc">    -14.41890311 </i>
    <i name="pawpsdc">    460.52732214 </i>
    <i name="pawaedc">   -431.95089632 </i>
    <i name="eentropy">      0.00003238 </i>
    <i name="bandstr">    -11.82750517 </i>
    <i name="atom">    209.99095002 </i>
    <i name="e_fr_energy">     -6.01110144 </i>
    <i name="e_wo_entrp">     -6.01113382 </i>
    <i name="e_0_energy">     -6.01110954 </i>
   </energy>
  </scstep>
  <structure>
   <crystal>
    <varray name="basis" >
     <v>       2.85000000       2.85000000       0.00000000 </v>
     <v>       0.00000000       2.85000000       2.85000000 </v>
     <v>       2.85000000       0.00000000       2.85000000 </v>
    </varray>
    <i name="volume">     46.29825000 </i>
    <varray name="rec_basis" >
     <v>       0.17543860       0.17543860      -0.17543860 </v>
     <v>      -0.17543860       0.17543860       0.17543860 </v>
     <v>       0.17543860      -0.17543860       0.17543860 </v>
    </varray>
   </crystal>
   <varray name="positions" >
    <v>       0.00000000       0.00000000       0.00000000 </v>
    <v>       0.25000000       0.25000000       0.25000000 </v>
   </varray>
  </structure>
  <varray name="forces" >
   <v>      -0.00000000      -0.00000000      -0.00000000 </v>
   <v>       0.00000000       0.00000000       0.00000000 </v>
  </varray>
  <varray name="stress" >
   <v>     130.82706908      -0.00000000       0.00000000 </v>
   <v>       0.00000000     130.82706908      -0.00000000 </v>
   <v>       0.00000000       0.00000000     130.82706908 </v>
  </varray>
  <energy>
   <i name="e_fr_energy">     -6.01110144 </i>
   <i name="e_wo_entrp">     -6.01110954 </i>
   <i name="e_0_energy">      0.00003238 </i>
  </energy>
  <time name="totalsc">   10.24   10.26</time>
  <eigenvalues>
   <array>
    <dimension dim="1">band</dimension>
    <dimension dim="2">kpoint</dimension>
    <dimension dim="3">spin</dimension>
    <field>eigene</field>
    <field>occ</field>
    <set>
     <set comment="spin 1">
      <set comment="kpoint 1">
       <r>   -8.8783    1.0000 </r>
       <r>    3.6410    1.0241 </r>
       <r>    3.7528    0.7292 </r>
       <r>    3.7528    0.7292 </r>
       <r>    3.7528    0.7291 </r>
       <r>    6.2172    0.0000 </r>
       <r>    6.2172    0.0000 </r>
       <r>    6.2172    0.0000 </r>
       <r>   10.0062    0.0000 </r>
      </set>
      <set comment="kpoint 2">
       <r>   -8.7308    1.0000 </r>
       <r>    1.6419    1.0000 </r>
       <r>    3.4767    0.9997 </r>
       <r>    3.4767    0.9997 </r>
       <r>    4.6851    0.0000 </r>
       <r>    6.5833    0.0000 </r>
       <r>    6.5833    0.0000 </r>
       <r>    6.9427    0.0000 </r>
       <r>   10.7602    0.0000 </r>
      </set>
      <set comment="kpoint 3">
       <r>   -8.2992    1.0000 </r>
       <r>   -0.4581    1.0000 </r>
       <r>    2.9871    1.0000 </r>
       <r>    2.9871    1.0000 </r>
       <r>    4.4197    0.0000 </r>
       <r>    7.1799    0.0000 </r>
       <r>    7.1799    0.0000 </r>
       <r>    8.7467    0.0000 </r>
       <r>   11.6349    0.0000 </r>
      </set>
      <set comment="kpoint 4">
       <r>   -7.6362    1.0000 </r>
       <r>   -2.3001    1.0000 </r>
       <r>    2.5925    1.0000 </r>
       <r>    2.5925    1.0000 </r>
       <r>    4.0618    0.0005 </r>
       <r>    7.4218    0.0000 </r>
       <r>    7.4218    0.0000 </r>
       <r>   10.6186    0.0000 </r>
       <r>   11.4158    0.0000 </r>
      </set>
      <set comment="kpoint 5">
       <r>   -6.9641    1.0000 </r>
       <r>   -3.5771    1.0000 </r>
       <r>    2.3837    1.0000 </r>
       <r>    2.3837    1.0000 </r>
       <r>    3.8630   -0.0491 </r>
       <r>    7.3997    0.0000 </r>
       <r>    7.3997    0.0000 </r>
       <r>   10.7442    0.0000 </r>
       <r>   13.1695    0.0000 </r>
      </set>
      <set comment="kpoint 6">
       <r>   -8.6810    1.0000 </r>
       <r>    1.5929    1.0000 </r>
       <r>    3.0172    1.0000 </r>
       <r>    3.0172    1.0000 </r>
       <r>    5.6810    0.0000 </r>
       <r>    5.6820    0.0000 </r>
       <r>    7.1990    0.0000 </r>
       <r>    7.1990    0.0000 </r>
       <r>   10.9892    0.0000 </r>
      </set>
      <set comment="kpoint 7">
       <r>   -8.3414    1.0000 </r>
       <r>    0.0107    1.0000 </r>
       <r>    2.4834    1.0000 </r>
       <r>    2.5013    1.0000 </r>
       <r>    5.5990    0.0000 </r>
       <r>    6.1248    0.0000 </r>
       <r>    7.9475    0.0000 </r>
       <r>    8.3134    0.0000 </r>
       <r>   10.7684    0.0000 </r>
      </set>
      <set comment="kpoint 8">
       <r>   -7.7447    1.0000 </r>
       <r>   -1.7852    1.0000 </r>
       <r>    1.8866    1.0000 </r>
       <r>    2.1529    1.0000 </r>
       <r>    5.2805    0.0000 </r>
       <r>    6.8067    0.0000 </r>
       <r>    8.2508    0.0000 </r>
       <r>    9.0928    0.0000 </r>
       <r>   11.8934    0.0000 </r>
      </set>
      <set comment="kpoint 9">
       <r>   -7.0242    1.0000 </r>
       <r>   -3.2490    1.0000 </r>
       <r>    1.4258    1.0000 </r>
       <r>    2.0387    1.0000 </r>
       <r>    5.0003    0.0000 </r>
       <r>    7.1044    0.0000 </r>
       <r>    8.0923    0.0000 </r>
       <r>   10.3180    0.0000 </r>
       <r>   12.2202    0.0000 </r>
      </set>
      <set comment="kpoint 10">
       <r>   -6.7169    1.0000 </r>
       <r>   -3.7450    1.0000 </r>
       <r>    1.1837    1.0000 </r>
       <r>    2.1666    1.0000 </r>
       <r>    4.9003    0.0000 </r>
       <r>    7.2660    0.0000 </r>
       <r>    7.8421    0.0000 </r>
       <r>   11.1806    0.0000 </r>
       <r>   12.9414    0.0000 </r>
      </set>
      <set comment="kpoint 11">
       <r>   -7.2628    1.0000 </r>
       <r>   -2.8173    1.0000 </r>
       <r>    1.1999    1.0000 </r>
       <r>    2.5111    1.0000 </r>
       <r>    4.9946    0.0000 </r>
       <r>    7.5101    0.0000 </r>
       <r>    7.6110    0.0000 </r>
       <r>   10.4567    0.0000 </r>
       <r>   11.9683    0.0000 </r>
      </set>
      <set comment="kpoint 12">
       <r>   -7.9709    1.0000 </r>
       <r>   -1.2096    1.0000 </r>
       <r>    1.5221    1.0000 </r>
       <r>    3.0024    1.0000 </r>
       <r>    5.2291    0.0000 </r>
       <r>    7.2163    0.0000 </r>
       <r>    7.5013    0.0000 </r>
       <r>    9.0740    0.0000 </r>
       <r>   11.0689    0.0000 </r>
      </set>
      <set comment="kpoint 13">
       <r>   -8.4875    1.0000 </r>
       <r>    0.4928    1.0000 </r>
       <r>    2.2872    1.0000 </r>
       <r>    3.4555    0.9999 </r>
       <r>    5.2775    0.0000 </r>
       <r>    6.6602    0.0000 </r>
       <r>    6.8085    0.0000 </r>
       <r>    8.1682    0.0000 </r>
       <r>   11.2386    0.0000 </r>
      </set>
      <set comment="kpoint 14">
       <r>   -8.0939    1.0000 </r>
       <r>   -0.4584    1.0000 </r>
       <r>    1.9580    1.0000 </r>
       <r>    1.9580    1.0000 </r>
       <r>    4.8608    0.0000 </r>
       <r>    6.5262    0.0000 </r>
       <r>    8.9735    0.0000 </r>
       <r>    8.9735    0.0000 </r>
       <r>   10.3989    0.0000 </r>
      </set>
      <set comment="kpoint 15">
       <r>   -7.5750    1.0000 </r>
       <r>   -1.7052    1.0000 </r>
       <r>    1.2651    1.0000 </r>
       <r>    1.5873    1.0000 </r>
       <r>    5.0417    0.0000 </r>
       <r>    6.4526    0.0000 </r>
       <r>    9.0433    0.0000 </r>
       <r>    9.6135    0.0000 </r>
       <r>   11.9746    0.0000 </r>
      </set>
      <set comment="kpoint 16">
       <r>   -6.8622    1.0000 </r>
       <r>   -3.0319    1.0000 </r>
       <r>    0.4887    1.0000 </r>
       <r>    1.4674    1.0000 </r>
       <r>    5.1860    0.0000 </r>
       <r>    7.4418    0.0000 </r>
       <r>    8.7824    0.0000 </r>
       <r>    9.5515    0.0000 </r>
       <r>   13.8218    0.0000 </r>
      </set>
      <set comment="kpoint 17">
       <r>   -6.3159    1.0000 </r>
       <r>   -3.8381    1.0000 </r>
       <r>   -0.0224    1.0000 </r>
       <r>    1.6135    1.0000 </r>
       <r>    5.2401    0.0000 </r>
       <r>    8.1627    0.0000 </r>
       <r>    9.1768    0.0000 </r>
       <r>    9.7735    0.0000 </r>
       <r>   12.4656    0.0000 </r>
      </set>
      <set comment="kpoint 18">
       <r>   -6.6630    1.0000 </r>
       <r>   -3.3419    1.0000 </r>
       <r>   -0.1474    1.0000 </r>
       <r>    1.9999    1.0000 </r>
       <r>    5.4576    0.0000 </r>
       <r>    8.2788    0.0000 </r>
       <r>    8.6973    0.0000 </r>
       <r>   10.2323    0.0000 </r>
       <r>   11.9186    0.0000 </r>
      </set>
      <set comment="kpoint 19">
       <r>   -7.3865    1.0000 </r>
       <r>   -2.1971    1.0000 </r>
       <r>    0.2897    1.0000 </r>
       <r>    2.5399    1.0000 </r>
       <r>    5.6790    0.0000 </r>
       <r>    7.9638    0.0000 </r>
       <r>    8.2572    0.0000 </r>
       <r>    8.7877    0.0000 </r>
       <r>   10.9865    0.0000 </r>
      </set>
      <set comment="kpoint 20">
       <r>   -7.1330    1.0000 </r>
       <r>   -2.4188    1.0000 </r>
       <r>    1.1679    1.0000 </r>
       <r>    1.1679    1.0000 </r>
       <r>    4.3419    0.0000 </r>
       <r>    5.6227    0.0000 </r>
       <r>   10.8953    0.0000 </r>
       <r>   10.8953    0.0000 </r>
       <r>   11.9920    0.0000 </r>
      </set>
      <set comment="kpoint 21">
       <r>   -6.4604    1.0000 </r>
       <r>   -3.4200    1.0000 </r>
       <r>    0.4866    1.0000 </r>
       <r>    0.9959    1.0000 </r>
       <r>    4.6223    0.0000 </r>
       <r>    5.6746    0.0000 </r>
       <r>   10.8025    0.0000 </r>
       <r>   11.3115    0.0000 </r>
       <r>   14.0176    0.0000 </r>
      </set>
      <set comment="kpoint 22">
       <r>   -5.7719    1.0000 </r>
       <r>   -4.2392    1.0000 </r>
       <r>   -0.3326    1.0000 </r>
       <r>    1.0984    1.0000 </r>
       <r>    4.8031    0.0000 </r>
       <r>    7.2298    0.0000 </r>
       <r>   10.4178    0.0000 </r>
       <r>   10.9215    0.0000 </r>
       <r>   12.7757    0.0000 </r>
      </set>
      <set comment="kpoint 23">
       <r>   -5.9554    1.0000 </r>
       <r>   -4.0288    1.0000 </r>
       <r>   -0.6621    1.0000 </r>
       <r>    1.4586    1.0000 </r>
       <r>    5.1036    0.0000 </r>
       <r>    9.3555    0.0000 </r>
       <r>    9.9750    0.0000 </r>
       <r>   10.0287    0.0000 </r>
       <r>   10.7705    0.0000 </r>
      </set>
      <set comment="kpoint 24">
       <r>   -5.8295    1.0000 </r>
       <r>   -4.2344    1.0000 </r>
       <r>    0.7572    1.0000 </r>
       <r>    0.7572    1.0000 </r>
       <r>    4.2749    0.0000 </r>
       <r>    4.7112    0.0000 </r>
       <r>   12.6495    0.0000 </r>
       <r>   12.6495    0.0000 </r>
       <r>   14.1132    0.0000 </r>
      </set>
      <set comment="kpoint 25">
       <r>   -5.1408    1.0000 </r>
       <r>   -4.9492    1.0000 </r>
       <r>    0.2245    1.0000 </r>
       <r>    0.7933    1.0000 </r>
       <r>    4.5115    0.0000 </r>
       <r>    5.3019    0.0000 </r>
       <r>   12.2772    0.0000 </r>
       <r>   12.4331    0.0000 </r>
       <r>   13.7185    0.0000 </r>
      </set>
     </set>
     <set comment="spin 2">
      <set comment="kpoint 1">
       <r>   -8.8787    1.0000 </r>
       <r>    3.6350    1.0187 </r>
       <r>    3.7541    0.7162 </r>
       <r>    3.7541    0.7162 </r>
       <r>    3.7541    0.7162 </r>
       <r>    6.2149    0.0000 </r>
       <r>    6.2149    0.0000 </r>
       <r>    6.2149    0.0000 </r>
       <r>    9.9992    0.0000 </r>
      </set>
      <set comment="kpoint 2">
       <r>   -8.7312    1.0000 </r>
       <r>    1.6404    1.0000 </r>
       <r>    3.4779    0.9997 </r>
       <r>    3.4779    0.9997 </r>
       <r>    4.6814    0.0000 </r>
       <r>    6.5811    0.0000 </r>
       <r>    6.5811    0.0000 </r>
       <r>    6.9403    0.0000 </r>
       <r>   10.7536    0.0000 </r>
      </set>
      <set comment="kpoint 3">
       <r>   -8.2996    1.0000 </r>
       <r>   -0.4592    1.0000 </r>
       <r>    2.9880    1.0000 </r>
       <r>    2.9880    1.0000 </r>
       <r>    4.4155    0.0000 </r>
       <r>    7.1777    0.0000 </r>
       <r>    7.1777    0.0000 </r>
       <r>    8.7429    0.0000 </r>
       <r>   11.6271    0.0000 </r>
      </set>
      <set comment="kpoint 4">
       <r>   -7.6366    1.0000 </r>
       <r>   -2.3010    1.0000 </r>
       <r>    2.5933    1.0000 </r>
       <r>    2.5933    1.0000 </r>
       <r>    4.0576    0.0006 </r>
       <r>    7.4197    0.0000 </r>
       <r>    7.4197    0.0000 </r>
       <r>   10.6123    0.0000 </r>
       <r>   11.4100    0.0000 </r>
      </set>
      <set comment="kpoint 5">
       <r>   -6.9644    1.0000 </r>
       <r>   -3.5779    1.0000 </r>
       <r>    2.3846    1.0000 </r>
       <r>    2.3846    1.0000 </r>
       <r>    3.8587   -0.0454 </r>
       <r>    7.3977    0.0000 </r>
       <r>    7.3977    0.0000 </r>
       <r>   10.7362    0.0000 </r>
       <r>   13.1642    0.0000 </r>
      </set>
      <set comment="kpoint 6">
       <r>   -8.6813    1.0000 </r>
       <r>    1.5912    1.0000 </r>
       <r>    3.0181    1.0000 </r>
       <r>    3.0181    1.0000 </r>
       <r>    5.6780    0.0000 </r>
       <r>    5.6790    0.0000 </r>
       <r>    7.1970    0.0000 </r>
       <r>    7.1970    0.0000 </r>
       <r>   10.9825    0.0000 </r>
      </set>
      <set comment="kpoint 7">
       <r>   -8.3418    1.0000 </r>
       <r>    0.0095    1.0000 </r>
       <r>    2.4835    1.0000 </r>
       <r>    2.5020    1.0000 </r>
       <r>    5.5961    0.0000 </r>
       <r>    6.1217    0.0000 </r>
       <r>    7.9455    0.0000 </r>
       <r>    8.3105    0.0000 </r>
       <r>   10.7673    0.0000 </r>
      </set>
      <set comment="kpoint 8">
       <r>   -7.7451    1.0000 </r>
       <r>   -1.7860    1.0000 </r>
       <r>    1.8863    1.0000 </r>
       <r>    2.1536    1.0000 </r>
       <r>    5.2775    0.0000 </r>
       <r>    6.8039    0.0000 </r>
       <r>    8.2488    0.0000 </r>
       <r>    9.0893    0.0000 </r>
       <r>   11.8873    0.0000 </r>
      </set>
      <set comment="kpoint 9">
       <r>   -7.0245    1.0000 </r>
       <r>   -3.2498    1.0000 </r>
       <r>    1.4254    1.0000 </r>
       <r>    2.0394    1.0000 </r>
       <r>    4.9971    0.0000 </r>
       <r>    7.1018    0.0000 </r>
       <r>    8.0903    0.0000 </r>
       <r>   10.3132    0.0000 </r>
       <r>   12.2157    0.0000 </r>
      </set>
      <set comment="kpoint 10">
       <r>   -6.7172    1.0000 </r>
       <r>   -3.7457    1.0000 </r>
       <r>    1.1833    1.0000 </r>
       <r>    2.1674    1.0000 </r>
       <r>    4.8971    0.0000 </r>
       <r>    7.2633    0.0000 </r>
       <r>    7.8401    0.0000 </r>
       <r>   11.1732    0.0000 </r>
       <r>   12.9376    0.0000 </r>
      </set>
      <set comment="kpoint 11">
       <r>   -7.2632    1.0000 </r>
       <r>   -2.8181    1.0000 </r>
       <r>    1.1996    1.0000 </r>
       <r>    2.5119    1.0000 </r>
       <r>    4.9913    0.0000 </r>
       <r>    7.5075    0.0000 </r>
       <r>    7.6087    0.0000 </r>
       <r>   10.4515    0.0000 </r>
       <r>   11.9685    0.0000 </r>
      </set>
      <set comment="kpoint 12">
       <r>   -7.9713    1.0000 </r>
       <r>   -1.2105    1.0000 </r>
       <r>    1.5220    1.0000 </r>
       <r>    3.0035    1.0000 </r>
       <r>    5.2256    0.0000 </r>
       <r>    7.2138    0.0000 </r>
       <r>    7.4989    0.0000 </r>
       <r>    9.0699    0.0000 </r>
       <r>   11.0691    0.0000 </r>
      </set>
      <set comment="kpoint 13">
       <r>   -8.4878    1.0000 </r>
       <r>    0.4916    1.0000 </r>
       <r>    2.2874    1.0000 </r>
       <r>    3.4567    0.9999 </r>
       <r>    5.2739    0.0000 </r>
       <r>    6.6578    0.0000 </r>
       <r>    6.8061    0.0000 </r>
       <r>    8.1655    0.0000 </r>
       <r>   11.2387    0.0000 </r>
      </set>
      <set comment="kpoint 14">
       <r>   -8.0943    1.0000 </r>
       <r>   -0.4596    1.0000 </r>
       <r>    1.9586    1.0000 </r>
       <r>    1.9586    1.0000 </r>
       <r>    4.8573    0.0000 </r>
       <r>    6.5223    0.0000 </r>
       <r>    8.9713    0.0000 </r>
       <r>    8.9713    0.0000 </r>
       <r>   10.3972    0.0000 </r>
      </set>
      <set comment="kpoint 15">
       <r>   -7.5753    1.0000 </r>
       <r>   -1.7061    1.0000 </r>
       <r>    1.2651    1.0000 </r>
       <r>    1.5879    1.0000 </r>
       <r>    5.0384    0.0000 </r>
       <r>    6.4488    0.0000 </r>
       <r>    9.0408    0.0000 </r>
       <r>    9.6111    0.0000 </r>
       <r>   11.9721    0.0000 </r>
      </set>
      <set comment="kpoint 16">
       <r>   -6.8626    1.0000 </r>
       <r>   -3.0327    1.0000 </r>
       <r>    0.4883    1.0000 </r>
       <r>    1.4680    1.0000 </r>
       <r>    5.1825    0.0000 </r>
       <r>    7.4383    0.0000 </r>
       <r>    8.7794    0.0000 </r>
       <r>    9.5492    0.0000 </r>
       <r>   13.8069    0.0000 </r>
      </set>
      <set comment="kpoint 17">
       <r>   -6.3162    1.0000 </r>
       <r>   -3.8387    1.0000 </r>
       <r>   -0.0230    1.0000 </r>
       <r>    1.6142    1.0000 </r>
       <r>    5.2366    0.0000 </r>
       <r>    8.1594    0.0000 </r>
       <r>    9.1745    0.0000 </r>
       <r>    9.7697    0.0000 </r>
       <r>   12.4607    0.0000 </r>
      </set>
      <set comment="kpoint 18">
       <r>   -6.6633    1.0000 </r>
       <r>   -3.3426    1.0000 </r>
       <r>   -0.1480    1.0000 </r>
       <r>    2.0007    1.0000 </r>
       <r>    5.4542    0.0000 </r>
       <r>    8.2753    0.0000 </r>
       <r>    8.6947    0.0000 </r>
       <r>   10.2278    0.0000 </r>
       <r>   11.8809    0.0000 </r>
      </set>
      <set comment="kpoint 19">
       <r>   -7.3869    1.0000 </r>
       <r>   -2.1979    1.0000 </r>
       <r>    0.2892    1.0000 </r>
       <r>    2.5408    1.0000 </r>
       <r>    5.6757    0.0000 </r>
       <r>    7.9612    0.0000 </r>
       <r>    8.2546    0.0000 </r>
       <r>    8.7830    0.0000 </r>
       <r>   10.9870    0.0000 </r>
      </set>
      <set comment="kpoint 20">
       <r>   -7.1334    1.0000 </r>
       <r>   -2.4196    1.0000 </r>
       <r>    1.1684    1.0000 </r>
       <r>    1.1684    1.0000 </r>
       <r>    4.3381    0.0000 </r>
       <r>    5.6187    0.0000 </r>
       <r>   10.8922    0.0000 </r>
       <r>   10.8922    0.0000 </r>
       <r>   11.9890    0.0000 </r>
      </set>
      <set comment="kpoint 21">
       <r>   -6.4608    1.0000 </r>
       <r>   -3.4206    1.0000 </r>
       <r>    0.4866    1.0000 </r>
       <r>    0.9964    1.0000 </r>
       <r>    4.6186    0.0000 </r>
       <r>    5.6709    0.0000 </r>
       <r>   10.7990    0.0000 </r>
       <r>   11.3083    0.0000 </r>
       <r>   14.0132    0.0000 </r>
      </set>
      <set comment="kpoint 22">
       <r>   -5.7723    1.0000 </r>
       <r>   -4.2398    1.0000 </r>
       <r>   -0.3331    1.0000 </r>
       <r>    1.0990    1.0000 </r>
       <r>    4.7993    0.0000 </r>
       <r>    7.2264    0.0000 </r>
       <r>   10.4137    0.0000 </r>
       <r>   10.9183    0.0000 </r>
       <r>   12.7716    0.0000 </r>
      </set>
      <set comment="kpoint 23">
       <r>   -5.9558    1.0000 </r>
       <r>   -4.0294    1.0000 </r>
       <r>   -0.6627    1.0000 </r>
       <r>    1.4592    1.0000 </r>
       <r>    5.1000    0.0000 </r>
       <r>    9.3518    0.0000 </r>
       <r>    9.9700    0.0000 </r>
       <r>   10.0255    0.0000 </r>
       <r>   10.7680    0.0000 </r>
      </set>
      <set comment="kpoint 24">
       <r>   -5.8300    1.0000 </r>
       <r>   -4.2350    1.0000 </r>
       <r>    0.7578    1.0000 </r>
       <r>    0.7578    1.0000 </r>
       <r>    4.2709    0.0000 </r>
       <r>    4.7072    0.0000 </r>
       <r>   12.6447    0.0000 </r>
       <r>   12.6447    0.0000 </r>
       <r>   14.1085    0.0000 </r>
      </set>
      <set comment="kpoint 25">
       <r>   -5.1413    1.0000 </r>
       <r>   -4.9497    1.0000 </r>
       <r>    0.2245    1.0000 </r>
       <r>    0.7939    1.0000 </r>
       <r>    4.5075    0.0000 </r>
       <r>    5.2984    0.0000 </r>
       <r>   12.2718    0.0000 </r>
       <r>   12.4284    0.0000 </r>
       <r>   13.7153    0.0000 </r>
      </set>
     </set>
    </set>
   </array>
  </eigenvalues>
  <separator name="orbital magnetization" >
   <v name="MAGDIPOLOUT">      0.00000000      0.00000000      0.00000000</v>
  </separator>
  <dos>
   <i name="efermi">      3.77528666 </i>
   <total>
    <array>
     <dimension dim="1">gridpoints</dimension>
     <dimension dim="2">spin</dimension>
     <field>energy</field>
     <field>total</field>
     <field>integrated</field>
     <set>
      <set comment="spin 1">
       <r>   -11.3093     0.0000     0.0000 </r>
       <r>   -11.1813     0.0000     0.0000 </r>
       <r>   -11.0534     0.0000     0.0000 </r>
       <r>   -10.9255     0.0000     0.0000 </r>
       <r>   -10.7976     0.0000     0.0000 </r>
       <r>   -10.6697     0.0000     0.0000 </r>
       <r>   -10.5417     0.0000     0.0000 </r>
       <r>   -10.4138     0.0000     0.0000 </r>
       <r>   -10.2859     0.0000     0.0000 </r>
       <r>   -10.1580     0.0000     0.0000 </r>
       <r>   -10.0301     0.0000     0.0000 </r>
       <r>    -9.9021     0.0000     0.0000 </r>
       <r>    -9.7742     0.0000     0.0000 </r>
       <r>    -9.6463     0.0000     0.0000 </r>
       <r>    -9.5184     0.0000     0.0000 </r>
       <r>    -9.3904     0.0000     0.0000 </r>
       <r>    -9.2625     0.0000     0.0000 </r>
       <r>    -9.1346     0.0002     0.0000 </r>
       <r>    -9.0067    -0.0027    -0.0003 </r>
       <r>    -8.8788     0.0465     0.0056 </r>
       <r>    -8.7508     0.1655     0.0268 </r>
       <r>    -8.6229     0.4761     0.0877 </r>
       <r>    -8.4950     0.0679     0.0964 </r>
       <r>    -8.3671     0.2103     0.1233 </r>
       <r>    -8.2392     0.6888     0.2114 </r>
       <r>    -8.1112     0.0399     0.2165 </r>
       <r>    -7.9833     0.2942     0.2541 </r>
       <r>    -7.8554     0.2330     0.2839 </r>
       <r>    -7.7275     0.2378     0.3144 </r>
       <r>    -7.5996     0.5804     0.3886 </r>
       <r>    -7.4716     0.3526     0.4337 </r>
       <r>    -7.3437     0.1432     0.4520 </r>
       <r>    -7.2158     0.3868     0.5015 </r>
       <r>    -7.0879     0.1992     0.5270 </r>
       <r>    -6.9599     0.6087     0.6048 </r>
       <r>    -6.8320     0.4937     0.6680 </r>
       <r>    -6.7041     0.3785     0.7164 </r>
       <r>    -6.5762     0.4898     0.7791 </r>
       <r>    -6.4483     0.2198     0.8072 </r>
       <r>    -6.3203     0.3382     0.8504 </r>
       <r>    -6.1924     0.2175     0.8783 </r>
       <r>    -6.0645    -0.0225     0.8754 </r>
       <r>    -5.9366     0.1327     0.8924 </r>
       <r>    -5.8087     0.2671     0.9265 </r>
       <r>    -5.6807     0.4030     0.9781 </r>
       <r>    -5.5528    -0.0235     0.9751 </r>
       <r>    -5.4249     0.0019     0.9753 </r>
       <r>    -5.2970    -0.0014     0.9751 </r>
       <r>    -5.1690     0.0444     0.9808 </r>
       <r>    -5.0411     0.1500     1.0000 </r>
       <r>    -4.9132     0.1624     1.0208 </r>
       <r>    -4.7853     0.0311     1.0248 </r>
       <r>    -4.6574    -0.0006     1.0247 </r>
       <r>    -4.5294     0.0003     1.0247 </r>
       <r>    -4.4015    -0.0018     1.0245 </r>
       <r>    -4.2736     0.0921     1.0363 </r>
       <r>    -4.1457     0.5102     1.1015 </r>
       <r>    -4.0178     0.0962     1.1138 </r>
       <r>    -3.8898     0.0932     1.1258 </r>
       <r>    -3.7619     0.5080     1.1907 </r>
       <r>    -3.6340     0.2736     1.2258 </r>
       <r>    -3.5061     0.3476     1.2702 </r>
       <r>    -3.3782     0.3993     1.3213 </r>
       <r>    -3.2502     0.5930     1.3972 </r>
       <r>    -3.1223     0.1676     1.4186 </r>
       <r>    -2.9944     0.3400     1.4621 </r>
       <r>    -2.8665     0.0814     1.4725 </r>
       <r>    -2.7385     0.3748     1.5204 </r>
       <r>    -2.6106    -0.0160     1.5184 </r>
       <r>    -2.4827     0.0019     1.5186 </r>
       <r>    -2.3548     0.2056     1.5449 </r>
       <r>    -2.2269     0.4225     1.5990 </r>
       <r>    -2.0989     0.1511     1.6183 </r>
       <r>    -1.9710    -0.0068     1.6174 </r>
       <r>    -1.8431    -0.0010     1.6173 </r>
       <r>    -1.7152     0.5464     1.6872 </r>
       <r>    -1.5873     0.2388     1.7178 </r>
       <r>    -1.4593    -0.0135     1.7160 </r>
       <r>    -1.3314    -0.0138     1.7143 </r>
       <r>    -1.2035     0.2316     1.7439 </r>
       <r>    -1.0756     0.1778     1.7666 </r>
       <r>    -0.9477    -0.0099     1.7654 </r>
       <r>    -0.8197    -0.0007     1.7653 </r>
       <r>    -0.6918     0.0428     1.7708 </r>
       <r>    -0.5639     0.1343     1.7879 </r>
       <r>    -0.4360     0.4180     1.8414 </r>
       <r>    -0.3080     0.4719     1.9018 </r>
       <r>    -0.1801     0.1647     1.9228 </r>
       <r>    -0.0522     0.4135     1.9757 </r>
       <r>     0.0757     0.6915     2.0642 </r>
       <r>     0.2036     0.0242     2.0673 </r>
       <r>     0.3316     0.3241     2.1087 </r>
       <r>     0.4595     0.2218     2.1371 </r>
       <r>     0.5874     0.8120     2.2410 </r>
       <r>     0.7153    -0.0177     2.2387 </r>
       <r>     0.8432     0.5503     2.3091 </r>
       <r>     0.9712     0.0841     2.3199 </r>
       <r>     1.0991     0.4681     2.3798 </r>
       <r>     1.2270     1.3077     2.5471 </r>
       <r>     1.3549     0.4390     2.6032 </r>
       <r>     1.4829     0.7961     2.7050 </r>
       <r>     1.6108     1.2684     2.8673 </r>
       <r>     1.7387     0.6857     2.9550 </r>
       <r>     1.8666     0.0481     2.9612 </r>
       <r>     1.9945     0.8565     3.0707 </r>
       <r>     2.1225     0.7516     3.1669 </r>
       <r>     2.2504     0.6727     3.2529 </r>
       <r>     2.3783     0.4550     3.3111 </r>
       <r>     2.5062     1.1549     3.4589 </r>
       <r>     2.6341     1.3796     3.6353 </r>
       <r>     2.7621     0.0542     3.6423 </r>
       <r>     2.8900    -0.0715     3.6331 </r>
       <r>     3.0179     1.1399     3.7790 </r>
       <r>     3.1458     0.4951     3.8423 </r>
       <r>     3.2737    -0.0188     3.8399 </r>
       <r>     3.4017    -0.0201     3.8373 </r>
       <r>     3.5296     0.9496     3.9588 </r>
       <r>     3.6575     0.0811     3.9692 </r>
       <r>     3.7854     0.2722     4.0040 </r>
       <r>     3.9134     0.4251     4.0584 </r>
       <r>     4.0413     0.1377     4.0760 </r>
       <r>     4.1692     0.2846     4.1124 </r>
       <r>     4.2971     0.1343     4.1296 </r>
       <r>     4.4250     0.4608     4.1885 </r>
       <r>     4.5530     0.3289     4.2306 </r>
       <r>     4.6809     0.6128     4.3090 </r>
       <r>     4.8088     0.6160     4.3878 </r>
       <r>     4.9367     0.6786     4.4746 </r>
       <r>     5.0646     1.1325     4.6194 </r>
       <r>     5.1926     0.5534     4.6902 </r>
       <r>     5.3205     1.5571     4.8894 </r>
       <r>     5.4484     0.2467     4.9210 </r>
       <r>     5.5763     0.3177     4.9616 </r>
       <r>     5.7043     1.2535     5.1220 </r>
       <r>     5.8322     0.2106     5.1489 </r>
       <r>     5.9601    -0.0070     5.1480 </r>
       <r>     6.0880     0.0501     5.1544 </r>
       <r>     6.2159     0.4986     5.2182 </r>
       <r>     6.3439     0.1201     5.2336 </r>
       <r>     6.4718     0.2499     5.2655 </r>
       <r>     6.5997     0.8697     5.3768 </r>
       <r>     6.7276     0.4238     5.4310 </r>
       <r>     6.8555     0.5268     5.4984 </r>
       <r>     6.9835     0.3930     5.5487 </r>
       <r>     7.1114     0.2068     5.5751 </r>
       <r>     7.2393     1.9482     5.8243 </r>
       <r>     7.3672     0.7723     5.9231 </r>
       <r>     7.4951     2.0873     6.1901 </r>
       <r>     7.6231     0.7101     6.2810 </r>
       <r>     7.7510     0.1082     6.2948 </r>
       <r>     7.8789     0.3261     6.3365 </r>
       <r>     8.0068     0.6054     6.4140 </r>
       <r>     8.1348     0.4789     6.4752 </r>
       <r>     8.2627     1.0597     6.6108 </r>
       <r>     8.3906     0.8642     6.7214 </r>
       <r>     8.5185    -0.0421     6.7160 </r>
       <r>     8.6464    -0.0094     6.7148 </r>
       <r>     8.7744     0.9422     6.8353 </r>
       <r>     8.9023     0.4286     6.8901 </r>
       <r>     9.0302     0.5386     6.9590 </r>
       <r>     9.1581     1.1511     7.1063 </r>
       <r>     9.2860     0.2409     7.1371 </r>
       <r>     9.4140     0.1718     7.1591 </r>
       <r>     9.5419     0.1562     7.1791 </r>
       <r>     9.6698     0.6119     7.2573 </r>
       <r>     9.7977     0.3020     7.2960 </r>
       <r>     9.9256     0.1015     7.3090 </r>
       <r>    10.0536     0.4333     7.3644 </r>
       <r>    10.1815     0.0632     7.3725 </r>
       <r>    10.3094     0.5088     7.4376 </r>
       <r>    10.4373     0.8146     7.5418 </r>
       <r>    10.5653     0.4436     7.5985 </r>
       <r>    10.6932     0.3328     7.6411 </r>
       <r>    10.8211     1.5731     7.8423 </r>
       <r>    10.9490     0.8789     7.9547 </r>
       <r>    11.0769     0.6776     8.0414 </r>
       <r>    11.2049     0.4699     8.1015 </r>
       <r>    11.3328     0.5405     8.1707 </r>
       <r>    11.4607     0.4677     8.2305 </r>
       <r>    11.5886     0.0633     8.2386 </r>
       <r>    11.7165     0.3754     8.2866 </r>
       <r>    11.8445    -0.0353     8.2821 </r>
       <r>    11.9724     1.2381     8.4405 </r>
       <r>    12.1003     0.5278     8.5080 </r>
       <r>    12.2282     0.2241     8.5367 </r>
       <r>    12.3562     0.3321     8.5792 </r>
       <r>    12.4841     0.4553     8.6374 </r>
       <r>    12.6120     0.1913     8.6619 </r>
       <r>    12.7399     0.4084     8.7141 </r>
       <r>    12.8678     0.3113     8.7539 </r>
       <r>    12.9958     0.3634     8.8004 </r>
       <r>    13.1237     0.0479     8.8065 </r>
       <r>    13.2516     0.3710     8.8540 </r>
       <r>    13.3795    -0.0187     8.8516 </r>
       <r>    13.5074     0.0028     8.8520 </r>
       <r>    13.6354    -0.0081     8.8509 </r>
       <r>    13.7633     0.1903     8.8753 </r>
       <r>    13.8912     0.3918     8.9254 </r>
       <r>    14.0191     0.1916     8.9499 </r>
       <r>    14.1470     0.3695     8.9972 </r>
       <r>    14.2750     0.0222     9.0000 </r>
       <r>    14.4029    -0.0002     9.0000 </r>
       <r>    14.5308     0.0001     9.0000 </r>
       <r>    14.6587     0.0000     9.0000 </r>
       <r>    14.7867     0.0000     9.0000 </r>
       <r>    14.9146     0.0000     9.0000 </r>
       <r>    15.0425     0.0000     9.0000 </r>
       <r>    15.1704     0.0000     9.0000 </r>
       <r>    15.2983     0.0000     9.0000 </r>
       <r>    15.4263     0.0000     9.0000 </r>
       <r>    15.5542     0.0000     9.0000 </r>
       <r>    15.6821     0.0000     9.0000 </r>
       <r>    15.8100     0.0000     9.0000 </r>
       <r>    15.9379     0.0000     9.0000 </r>
       <r>    16.0659     0.0000     9.0000 </r>
       <r>    16.1938     0.0000     9.0000 </r>
       <r>    16.3217     0.0000     9.0000 </r>
       <r>    16.4496     0.0000     9.0000 </r>
       <r>    16.5775     0.0000     9.0000 </r>
       <r>    16.7055     0.0000     9.0000 </r>
       <r>    16.8334     0.0000     9.0000 </r>
       <r>    16.9613     0.0000     9.0000 </r>
       <r>    17.0892     0.0000     9.0000 </r>
       <r>    17.2172     0.0000     9.0000 </r>
       <r>    17.3451     0.0000     9.0000 </r>
       <r>    17.4730     0.0000     9.0000 </r>
       <r>    17.6009     0.0000     9.0000 </r>
       <r>    17.7288     0.0000     9.0000 </r>
       <r>    17.8568     0.0000     9.0000 </r>
       <r>    17.9847     0.0000     9.0000 </r>
       <r>    18.1126     0.0000     9.0000 </r>
       <r>    18.2405     0.0000     9.0000 </r>
       <r>    18.3684     0.0000     9.0000 </r>
       <r>    18.4964     0.0000     9.0000 </r>
       <r>    18.6243     0.0000     9.0000 </r>
       <r>    18.7522     0.0000     9.0000 </r>
       <r>    18.8801     0.0000     9.0000 </r>
       <r>    19.0081     0.0000     9.0000 </r>
       <r>    19.1360     0.0000     9.0000 </r>
       <r>    19.2639     0.0000     9.0000 </r>
       <r>    19.3918     0.0000     9.0000 </r>
       <r>    19.5197     0.0000     9.0000 </r>
       <r>    19.6477     0.0000     9.0000 </r>
       <r>    19.7756     0.0000     9.0000 </r>
       <r>    19.9035     0.0000     9.0000 </r>
       <r>    20.0314     0.0000     9.0000 </r>
       <r>    20.1593     0.0000     9.0000 </r>
       <r>    20.2873     0.0000     9.0000 </r>
       <r>    20.4152     0.0000     9.0000 </r>
       <r>    20.5431     0.0000     9.0000 </r>
       <r>    20.6710     0.0000     9.0000 </r>
       <r>    20.7989     0.0000     9.0000 </r>
       <r>    20.9269     0.0000     9.0000 </r>
       <r>    21.0548     0.0000     9.0000 </r>
       <r>    21.1827     0.0000     9.0000 </r>
       <r>    21.3106     0.0000     9.0000 </r>
       <r>    21.4386     0.0000     9.0000 </r>
       <r>    21.5665     0.0000     9.0000 </r>
       <r>    21.6944     0.0000     9.0000 </r>
       <r>    21.8223     0.0000     9.0000 </r>
       <r>    21.9502     0.0000     9.0000 </r>
       <r>    22.0782     0.0000     9.0000 </r>
       <r>    22.2061     0.0000     9.0000 </r>
       <r>    22.3340     0.0000     9.0000 </r>
       <r>    22.4619     0.0000     9.0000 </r>
       <r>    22.5898     0.0000     9.0000 </r>
       <r>    22.7178     0.0000     9.0000 </r>
       <r>    22.8457     0.0000     9.0000 </r>
       <r>    22.9736     0.0000     9.0000 </r>
       <r>    23.1015     0.0000     9.0000 </r>
       <r>    23.2294     0.0000     9.0000 </r>
       <r>    23.3574     0.0000     9.0000 </r>
       <r>    23.4853     0.0000     9.0000 </r>
       <r>    23.6132     0.0000     9.0000 </r>
       <r>    23.7411     0.0000     9.0000 </r>
       <r>    23.8691     0.0000     9.0000 </r>
       <r>    23.9970     0.0000     9.0000 </r>
       <r>    24.1249     0.0000     9.0000 </r>
       <r>    24.2528     0.0000     9.0000 </r>
       <r>    24.3807     0.0000     9.0000 </r>
       <r>    24.5087     0.0000     9.0000 </r>
       <r>    24.6366     0.0000     9.0000 </r>
       <r>    24.7645     0.0000     9.0000 </r>
       <r>    24.8924     0.0000     9.0000 </r>
       <r>    25.0203     0.0000     9.0000 </r>
       <r>    25.1483     0.0000     9.0000 </r>
       <r>    25.2762     0.0000     9.0000 </r>
       <r>    25.4041     0.0000     9.0000 </r>
       <r>    25.5320     0.0000     9.0000 </r>
       <r>    25.6600     0.0000     9.0000 </r>
       <r>    25.7879     0.0000     9.0000 </r>
       <r>    25.9158     0.0000     9.0000 </r>
       <r>    26.0437     0.0000     9.0000 </r>
       <r>    26.1716     0.0000     9.0000 </r>
       <r>    26.2996     0.0000     9.0000 </r>
       <r>    26.4275     0.0000     9.0000 </r>
       <r>    26.5554     0.0000     9.0000 </r>
       <r>    26.6833     0.0000     9.0000 </r>
       <r>    26.8112     0.0000     9.0000 </r>
       <r>    26.9392     0.0000     9.0000 </r>
       <r>    27.0671     0.0000     9.0000 </r>
      </set>
      <set comment="spin 2">
       <r>   -11.3093     0.0000     0.0000 </r>
       <r>   -11.1813     0.0000     0.0000 </r>
       <r>   -11.0534     0.0000     0.0000 </r>
       <r>   -10.9255     0.0000     0.0000 </r>
       <r>   -10.7976     0.0000     0.0000 </r>
       <r>   -10.6697     0.0000     0.0000 </r>
       <r>   -10.5417     0.0000     0.0000 </r>
       <r>   -10.4138     0.0000     0.0000 </r>
       <r>   -10.2859     0.0000     0.0000 </r>
       <r>   -10.1580     0.0000     0.0000 </r>
       <r>   -10.0301     0.0000     0.0000 </r>
       <r>    -9.9021     0.0000     0.0000 </r>
       <r>    -9.7742     0.0000     0.0000 </r>
       <r>    -9.6463     0.0000     0.0000 </r>
       <r>    -9.5184     0.0000     0.0000 </r>
       <r>    -9.3904     0.0000     0.0000 </r>
       <r>    -9.2625     0.0000     0.0000 </r>
       <r>    -9.1346     0.0002     0.0000 </r>
       <r>    -9.0067    -0.0027    -0.0003 </r>
       <r>    -8.8788     0.0467     0.0057 </r>
       <r>    -8.7508     0.1667     0.0270 </r>
       <r>    -8.6229     0.4748     0.0877 </r>
       <r>    -8.4950     0.0684     0.0965 </r>
       <r>    -8.3671     0.2112     0.1235 </r>
       <r>    -8.2392     0.6877     0.2114 </r>
       <r>    -8.1112     0.0400     0.2166 </r>
       <r>    -7.9833     0.2950     0.2543 </r>
       <r>    -7.8554     0.2315     0.2839 </r>
       <r>    -7.7275     0.2393     0.3145 </r>
       <r>    -7.5996     0.5813     0.3889 </r>
       <r>    -7.4716     0.3503     0.4337 </r>
       <r>    -7.3437     0.1439     0.4521 </r>
       <r>    -7.2158     0.3870     0.5016 </r>
       <r>    -7.0879     0.1991     0.5271 </r>
       <r>    -6.9599     0.6096     0.6051 </r>
       <r>    -6.8320     0.4929     0.6681 </r>
       <r>    -6.7041     0.3798     0.7167 </r>
       <r>    -6.5762     0.4875     0.7791 </r>
       <r>    -6.4483     0.2214     0.8074 </r>
       <r>    -6.3203     0.3380     0.8506 </r>
       <r>    -6.1924     0.2161     0.8783 </r>
       <r>    -6.0645    -0.0224     0.8754 </r>
       <r>    -5.9366     0.1334     0.8924 </r>
       <r>    -5.8087     0.2685     0.9268 </r>
       <r>    -5.6807     0.4010     0.9781 </r>
       <r>    -5.5528    -0.0235     0.9751 </r>
       <r>    -5.4249     0.0019     0.9753 </r>
       <r>    -5.2970    -0.0015     0.9751 </r>
       <r>    -5.1690     0.0452     0.9809 </r>
       <r>    -5.0411     0.1492     1.0000 </r>
       <r>    -4.9132     0.1631     1.0209 </r>
       <r>    -4.7853     0.0303     1.0247 </r>
       <r>    -4.6574    -0.0005     1.0247 </r>
       <r>    -4.5294     0.0003     1.0247 </r>
       <r>    -4.4015    -0.0019     1.0245 </r>
       <r>    -4.2736     0.0949     1.0366 </r>
       <r>    -4.1457     0.5076     1.1015 </r>
       <r>    -4.0178     0.0973     1.1140 </r>
       <r>    -3.8898     0.0931     1.1259 </r>
       <r>    -3.7619     0.5103     1.1912 </r>
       <r>    -3.6340     0.2715     1.2259 </r>
       <r>    -3.5061     0.3473     1.2703 </r>
       <r>    -3.3782     0.4020     1.3218 </r>
       <r>    -3.2502     0.5926     1.3976 </r>
       <r>    -3.1223     0.1643     1.4186 </r>
       <r>    -2.9944     0.3421     1.4623 </r>
       <r>    -2.8665     0.0810     1.4727 </r>
       <r>    -2.7385     0.3737     1.5205 </r>
       <r>    -2.6106    -0.0165     1.5184 </r>
       <r>    -2.4827     0.0024     1.5187 </r>
       <r>    -2.3548     0.2071     1.5452 </r>
       <r>    -2.2269     0.4225     1.5993 </r>
       <r>    -2.0989     0.1490     1.6183 </r>
       <r>    -1.9710    -0.0068     1.6174 </r>
       <r>    -1.8431     0.0002     1.6175 </r>
       <r>    -1.7152     0.5498     1.6878 </r>
       <r>    -1.5873     0.2339     1.7177 </r>
       <r>    -1.4593    -0.0132     1.7160 </r>
       <r>    -1.3314    -0.0142     1.7142 </r>
       <r>    -1.2035     0.2357     1.7444 </r>
       <r>    -1.0756     0.1737     1.7666 </r>
       <r>    -0.9477    -0.0095     1.7654 </r>
       <r>    -0.8197    -0.0008     1.7653 </r>
       <r>    -0.6918     0.0439     1.7709 </r>
       <r>    -0.5639     0.1330     1.7879 </r>
       <r>    -0.4360     0.4241     1.8422 </r>
       <r>    -0.3080     0.4670     1.9019 </r>
       <r>    -0.1801     0.1652     1.9230 </r>
       <r>    -0.0522     0.4155     1.9762 </r>
       <r>     0.0757     0.6894     2.0644 </r>
       <r>     0.2036     0.0227     2.0673 </r>
       <r>     0.3316     0.3245     2.1088 </r>
       <r>     0.4595     0.2246     2.1375 </r>
       <r>     0.5874     0.8089     2.2410 </r>
       <r>     0.7153    -0.0194     2.2385 </r>
       <r>     0.8432     0.5513     2.3090 </r>
       <r>     0.9712     0.0830     2.3197 </r>
       <r>     1.0991     0.4670     2.3794 </r>
       <r>     1.2270     1.3117     2.5472 </r>
       <r>     1.3549     0.4383     2.6033 </r>
       <r>     1.4829     0.7931     2.7047 </r>
       <r>     1.6108     1.2745     2.8678 </r>
       <r>     1.7387     0.6821     2.9550 </r>
       <r>     1.8666     0.0496     2.9613 </r>
       <r>     1.9945     0.8486     3.0699 </r>
       <r>     2.1225     0.7539     3.1663 </r>
       <r>     2.2504     0.6768     3.2529 </r>
       <r>     2.3783     0.4487     3.3103 </r>
       <r>     2.5062     1.1533     3.4578 </r>
       <r>     2.6341     1.3835     3.6348 </r>
       <r>     2.7621     0.0585     3.6423 </r>
       <r>     2.8900    -0.0709     3.6332 </r>
       <r>     3.0179     1.1259     3.7773 </r>
       <r>     3.1458     0.5095     3.8424 </r>
       <r>     3.2737    -0.0199     3.8399 </r>
       <r>     3.4017    -0.0229     3.8370 </r>
       <r>     3.5296     0.9469     3.9581 </r>
       <r>     3.6575     0.0923     3.9699 </r>
       <r>     3.7854     0.2661     4.0039 </r>
       <r>     3.9134     0.4331     4.0593 </r>
       <r>     4.0413     0.1459     4.0780 </r>
       <r>     4.1692     0.2672     4.1122 </r>
       <r>     4.2971     0.1465     4.1309 </r>
       <r>     4.4250     0.4679     4.1908 </r>
       <r>     4.5530     0.3173     4.2314 </r>
       <r>     4.6809     0.6327     4.3123 </r>
       <r>     4.8088     0.6075     4.3900 </r>
       <r>     4.9367     0.6800     4.4770 </r>
       <r>     5.0646     1.1349     4.6222 </r>
       <r>     5.1926     0.5654     4.6945 </r>
       <r>     5.3205     1.5424     4.8918 </r>
       <r>     5.4484     0.2398     4.9225 </r>
       <r>     5.5763     0.3197     4.9634 </r>
       <r>     5.7043     1.2680     5.1256 </r>
       <r>     5.8322     0.1805     5.1487 </r>
       <r>     5.9601    -0.0056     5.1480 </r>
       <r>     6.0880     0.0593     5.1555 </r>
       <r>     6.2159     0.4974     5.2192 </r>
       <r>     6.3439     0.1110     5.2334 </r>
       <r>     6.4718     0.2681     5.2677 </r>
       <r>     6.5997     0.8719     5.3792 </r>
       <r>     6.7276     0.4074     5.4313 </r>
       <r>     6.8555     0.5338     5.4996 </r>
       <r>     6.9835     0.3889     5.5494 </r>
       <r>     7.1114     0.2152     5.5769 </r>
       <r>     7.2393     1.9756     5.8296 </r>
       <r>     7.3672     0.7510     5.9257 </r>
       <r>     7.4951     2.0967     6.1939 </r>
       <r>     7.6231     0.6879     6.2819 </r>
       <r>     7.7510     0.1009     6.2948 </r>
       <r>     7.8789     0.3352     6.3377 </r>
       <r>     8.0068     0.6024     6.4147 </r>
       <r>     8.1348     0.4913     6.4776 </r>
       <r>     8.2627     1.0742     6.6150 </r>
       <r>     8.3906     0.8312     6.7213 </r>
       <r>     8.5185    -0.0416     6.7160 </r>
       <r>     8.6464    -0.0059     6.7152 </r>
       <r>     8.7744     0.9739     6.8398 </r>
       <r>     8.9023     0.3913     6.8899 </r>
       <r>     9.0302     0.5698     6.9628 </r>
       <r>     9.1581     1.1350     7.1080 </r>
       <r>     9.2860     0.2293     7.1373 </r>
       <r>     9.4140     0.1723     7.1593 </r>
       <r>     9.5419     0.1656     7.1805 </r>
       <r>     9.6698     0.6032     7.2577 </r>
       <r>     9.7977     0.3121     7.2976 </r>
       <r>     9.9256     0.0947     7.3097 </r>
       <r>    10.0536     0.4375     7.3657 </r>
       <r>    10.1815     0.0609     7.3735 </r>
       <r>    10.3094     0.5206     7.4401 </r>
       <r>    10.4373     0.8296     7.5462 </r>
       <r>    10.5653     0.4186     7.5998 </r>
       <r>    10.6932     0.3561     7.6453 </r>
       <r>    10.8211     1.5728     7.8465 </r>
       <r>    10.9490     0.8703     7.9578 </r>
       <r>    11.0769     0.6513     8.0412 </r>
       <r>    11.2049     0.4962     8.1046 </r>
       <r>    11.3328     0.5291     8.1723 </r>
       <r>    11.4607     0.4664     8.2320 </r>
       <r>    11.5886     0.0717     8.2412 </r>
       <r>    11.7165     0.3545     8.2865 </r>
       <r>    11.8445     0.0498     8.2929 </r>
       <r>    11.9724     1.2077     8.4474 </r>
       <r>    12.1003     0.4707     8.5076 </r>
       <r>    12.2282     0.2525     8.5399 </r>
       <r>    12.3562     0.3077     8.5792 </r>
       <r>    12.4841     0.4766     8.6402 </r>
       <r>    12.6120     0.1817     8.6634 </r>
       <r>    12.7399     0.4094     8.7158 </r>
       <r>    12.8678     0.3021     8.7545 </r>
       <r>    12.9958     0.3657     8.8012 </r>
       <r>    13.1237     0.0551     8.8083 </r>
       <r>    13.2516     0.3594     8.8543 </r>
       <r>    13.3795    -0.0206     8.8516 </r>
       <r>    13.5074     0.0028     8.8520 </r>
       <r>    13.6354    -0.0088     8.8509 </r>
       <r>    13.7633     0.2262     8.8798 </r>
       <r>    13.8912     0.3651     8.9265 </r>
       <r>    14.0191     0.2011     8.9522 </r>
       <r>    14.1470     0.3567     8.9979 </r>
       <r>    14.2750     0.0164     9.0000 </r>
       <r>    14.4029     0.0002     9.0000 </r>
       <r>    14.5308     0.0001     9.0000 </r>
       <r>    14.6587     0.0000     9.0000 </r>
       <r>    14.7867     0.0000     9.0000 </r>
       <r>    14.9146     0.0000     9.0000 </r>
       <r>    15.0425     0.0000     9.0000 </r>
       <r>    15.1704     0.0000     9.0000 </r>
       <r>    15.2983     0.0000     9.0000 </r>
       <r>    15.4263     0.0000     9.0000 </r>
       <r>    15.5542     0.0000     9.0000 </r>
       <r>    15.6821     0.0000     9.0000 </r>
       <r>    15.8100     0.0000     9.0000 </r>
       <r>    15.9379     0.0000     9.0000 </r>
       <r>    16.0659     0.0000     9.0000 </r>
       <r>    16.1938     0.0000     9.0000 </r>
       <r>    16.3217     0.0000     9.0000 </r>
       <r>    16.4496     0.0000     9.0000 </r>
       <r>    16.5775     0.0000     9.0000 </r>
       <r>    16.7055     0.0000     9.0000 </r>
       <r>    16.8334     0.0000     9.0000 </r>
       <r>    16.9613     0.0000     9.0000 </r>
       <r>    17.0892     0.0000     9.0000 </r>
       <r>    17.2172     0.0000     9.0000 </r>
       <r>    17.3451     0.0000     9.0000 </r>
       <r>    17.4730     0.0000     9.0000 </r>
       <r>    17.6009     0.0000     9.0000 </r>
       <r>    17.7288     0.0000     9.0000 </r>
       <r>    17.8568     0.0000     9.0000 </r>
       <r>    17.9847     0.0000     9.0000 </r>
       <r>    18.1126     0.0000     9.0000 </r>
       <r>    18.2405     0.0000     9.0000 </r>
       <r>    18.3684     0.0000     9.0000 </r>
       <r>    18.4964     0.0000     9.0000 </r>
       <r>    18.6243     0.0000     9.0000 </r>
       <r>    18.7522     0.0000     9.0000 </r>
       <r>    18.8801     0.0000     9.0000 </r>
       <r>    19.0081     0.0000     9.0000 </r>
       <r>    19.1360     0.0000     9.0000 </r>
       <r>    19.2639     0.0000     9.0000 </r>
       <r>    19.3918     0.0000     9.0000 </r>
       <r>    19.5197     0.0000     9.0000 </r>
       <r>    19.6477     0.0000     9.0000 </r>
       <r>    19.7756     0.0000     9.0000 </r>
       <r>    19.9035     0.0000     9.0000 </r>
       <r>    20.0314     0.0000     9.0000 </r>
       <r>    20.1593     0.0000     9.0000 </r>
       <r>    20.2873     0.0000     9.0000 </r>
       <r>    20.4152     0.0000     9.0000 </r>
       <r>    20.5431     0.0000     9.0000 </r>
       <r>    20.6710     0.0000     9.0000 </r>
       <r>    20.7989     0.0000     9.0000 </r>
       <r>    20.9269     0.0000     9.0000 </r>
       <r>    21.0548     0.0000     9.0000 </r>
       <r>    21.1827     0.0000     9.0000 </r>
       <r>    21.3106     0.0000     9.0000 </r>
       <r>    21.4386     0.0000     9.0000 </r>
       <r>    21.5665     0.0000     9.0000 </r>
       <r>    21.6944     0.0000     9.0000 </r>
       <r>    21.8223     0.0000     9.0000 </r>
       <r>    21.9502     0.0000     9.0000 </r>
       <r>    22.0782     0.0000     9.0000 </r>
       <r>    22.2061     0.0000     9.0000 </r>
       <r>    22.3340     0.0000     9.0000 </r>
       <r>    22.4619     0.0000     9.0000 </r>
       <r>    22.5898     0.0000     9.0000 </r>
       <r>    22.7178     0.0000     9.0000 </r>
       <r>    22.8457     0.0000     9.0000 </r>
       <r>    22.9736     0.0000     9.0000 </r>
       <r>    23.1015     0.0000     9.0000 </r>
       <r>    23.2294     0.0000     9.0000 </r>
       <r>    23.3574     0.0000     9.0000 </r>
       <r>    23.4853     0.0000     9.0000 </r>
       <r>    23.6132     0.0000     9.0000 </r>
       <r>    23.7411     0.0000     9.0000 </r>
       <r>    23.8691     0.0000     9.0000 </r>
       <r>    23.9970     0.0000     9.0000 </r>
       <r>    24.1249     0.0000     9.0000 </r>
       <r>    24.2528     0.0000     9.0000 </r>
       <r>    24.3807     0.0000     9.0000 </r>
       <r>    24.5087     0.0000     9.0000 </r>
       <r>    24.6366     0.0000     9.0000 </r>
       <r>    24.7645     0.0000     9.0000 </r>
       <r>    24.8924     0.0000     9.0000 </r>
       <r>    25.0203     0.0000     9.0000 </r>
       <r>    25.1483     0.0000     9.0000 </r>
       <r>    25.2762     0.0000     9.0000 </r>
       <r>    25.4041     0.0000     9.0000 </r>
       <r>    25.5320     0.0000     9.0000 </r>
       <r>    25.6600     0.0000     9.0000 </r>
       <r>    25.7879     0.0000     9.0000 </r>
       <r>    25.9158     0.0000     9.0000 </r>
       <r>    26.0437     0.0000     9.0000 </r>
       <r>    26.1716     0.0000     9.0000 </r>
       <r>    26.2996     0.0000     9.0000 </r>
       <r>    26.4275     0.0000     9.0000 </r>
       <r>    26.5554     0.0000     9.0000 </r>
       <r>    26.6833     0.0000     9.0000 </r>
       <r>    26.8112     0.0000     9.0000 </r>
       <r>    26.9392     0.0000     9.0000 </r>
       <r>    27.0671     0.0000     9.0000 </r>
      </set>
     </set>
    </array>
   </total>
  </dos>
 </calculation>
 <structure name="finalpos" >
  <crystal>
   <varray name="basis" >
    <v>       2.85000000       2.85000000       0.00000000 </v>
    <v>       0.00000000       2.85000000       2.85000000 </v>
    <v>       2.85000000       0.00000000       2.85000000 </v>
   </varray>
   <i name="volume">     46.29825000 </i>
   <varray name="rec_basis" >
    <v>       0.17543860       0.17543860      -0.17543860 </v>
    <v>      -0.17543860       0.17543860       0.17543860 </v>
    <v>       0.17543860      -0.17543860       0.17543860 </v>
   </varray>
  </crystal>
  <varray name="positions" >
   <v>       0.00000000       0.00000000       0.00000000 </v>
   <v>       0.25000000       0.25000000       0.25000000 </v>
  </varray>
 </structure>
</modeling>
