 running on    1 total cores
 distrk:  each k-point on    1 cores,    1 groups
 distr:  one band on    1 cores,    1 groups
 using from now: INCAR     
 vasp.5.3.3 18Dez12 (build Sep  7 2015 22:32:56) complex                        
  
 POSCAR found :  2 types and       2 ions
 LDA part: xc-table for Pade appr. of Perdew
 POSCAR, INCAR and KPOINTS ok, starting setup
 WARNING: small aliasing (wrap around) errors must be expected
 FFT: planning ...
 WAVECAR not read
 WARNING: random wavefunctions but no delay for mixing, default for NELMDL
 entering main loop
       N       E                     dE             d eps       ncg     rms          rms(c)
DAV:   1     0.790394779508E+02    0.79039E+02   -0.19218E+03    18   0.462E+02
DAV:   2     0.172341353742E+01   -0.77316E+02   -0.77084E+02    34   0.118E+02
DAV:   3    -0.150623054843E+02   -0.16786E+02   -0.16781E+02    35   0.747E+01
DAV:   4    -0.152967376369E+02   -0.23443E+00   -0.23443E+00    20   0.892E+00
DAV:   5    -0.152985691982E+02   -0.18316E-02   -0.18316E-02    27   0.883E-01    0.636E+00
RMM:   6    -0.147941757677E+02    0.50439E+00   -0.16233E+00    18   0.103E+01    0.352E+00
RMM:   7    -0.146692814307E+02    0.12489E+00   -0.17984E-01    18   0.314E+00    0.195E+00
RMM:   8    -0.146369824576E+02    0.32299E-01   -0.13248E-01    18   0.252E+00    0.353E-01
RMM:   9    -0.146363927141E+02    0.58974E-03   -0.51691E-03    18   0.571E-01    0.155E-01
RMM:  10    -0.146369784694E+02   -0.58576E-03   -0.15112E-03    18   0.344E-01    0.354E-02
RMM:  11    -0.146385171716E+02   -0.15387E-02   -0.71707E-04    17   0.163E-01    0.391E-02
RMM:  12    -0.146390389004E+02   -0.52173E-03   -0.18934E-04    14   0.993E-02    0.125E-02
RMM:  13    -0.146400424309E+02   -0.10035E-02   -0.15368E-04    14   0.676E-02    0.150E-02
RMM:  14    -0.146400946710E+02   -0.52240E-04   -0.21643E-05    12   0.314E-02
   1 F= -.14640095E+02 E0= -.14640095E+02  d E =-.146401E+02
 BRION: g(F)=  0.267E+01 g(S)=  0.000E+00
 bond charge predicted
       N       E                     dE             d eps       ncg     rms          rms(c)
DAV:   1     0.227905938358E+02    0.37431E+02   -0.76592E+02    18   0.294E+02    0.257E+01
RMM:   2     0.243673466366E+02    0.15768E+01   -0.25160E+01    18   0.541E+01    0.314E+01
RMM:   3     0.214809441214E+02   -0.28864E+01   -0.38080E+00    18   0.180E+01    0.492E+01
RMM:   4     0.261151537327E+02    0.46342E+01   -0.15585E+01    18   0.336E+01    0.690E+00
RMM:   5     0.261262176428E+02    0.11064E-01   -0.25129E-01    18   0.387E+00    0.366E+00
RMM:   6     0.261218257576E+02   -0.43919E-02   -0.21385E-02    19   0.109E+00    0.199E+00
RMM:   7     0.261171327668E+02   -0.46930E-02   -0.86305E-03    18   0.918E-01    0.268E-01
RMM:   8     0.261170034845E+02   -0.12928E-03   -0.15181E-03    18   0.300E-01    0.539E-02
RMM:   9     0.261133464210E+02   -0.36571E-02   -0.43621E-03    18   0.425E-01    0.263E-01
RMM:  10     0.261120824977E+02   -0.12639E-02   -0.17681E-03    18   0.308E-01    0.102E-01
RMM:  11     0.261103407686E+02   -0.17417E-02   -0.51036E-04    15   0.156E-01    0.221E-02
RMM:  12     0.261100182184E+02   -0.32255E-03   -0.11172E-04    13   0.800E-02    0.174E-02
RMM:  13     0.261098539646E+02   -0.16425E-03   -0.18859E-05    12   0.305E-02    0.144E-02
RMM:  14     0.261096932765E+02   -0.16069E-03   -0.19485E-05    12   0.263E-02    0.521E-03
RMM:  15     0.261096639435E+02   -0.29333E-04   -0.80724E-06    12   0.217E-02
   2 F= 0.26109664E+02 E0= 0.26109664E+02  d E =0.407498E+02
 BRION: g(F)=  0.944E+04 g(S)=  0.000E+00 retain N=  1 mean eig= 0.02
 eig:   0.017
 bond charge predicted
       N       E                     dE             d eps       ncg     rms          rms(c)
DAV:   1    -0.192695305755E+02   -0.45379E+02   -0.74419E+02    18   0.293E+02    0.366E+01
RMM:   2    -0.156534901170E+02    0.36160E+01   -0.19204E+01    18   0.400E+01    0.214E+01
RMM:   3    -0.147200833161E+02    0.93341E+00   -0.67570E+00    18   0.186E+01    0.455E+00
RMM:   4    -0.147485040250E+02   -0.28421E-01   -0.37909E-01    20   0.427E+00    0.144E+00
RMM:   5    -0.148025696156E+02   -0.54066E-01   -0.14971E+00    18   0.738E+00    0.194E+00
RMM:   6    -0.146837322691E+02    0.11884E+00   -0.10864E-01    18   0.254E+00    0.656E-01
RMM:   7    -0.146772195726E+02    0.65127E-02   -0.38093E-02    18   0.137E+00    0.698E-02
RMM:   8    -0.146789170289E+02   -0.16975E-02   -0.21097E-03    18   0.385E-01    0.106E-01
RMM:   9    -0.146800565009E+02   -0.11395E-02   -0.77533E-04    16   0.171E-01    0.526E-02
RMM:  10    -0.146810984777E+02   -0.10420E-02   -0.14063E-03    18   0.265E-01    0.926E-02
RMM:  11    -0.146814370745E+02   -0.33860E-03   -0.10060E-03    18   0.239E-01    0.607E-02
RMM:  12    -0.146815796584E+02   -0.14258E-03   -0.11123E-04    13   0.922E-02    0.927E-03
RMM:  13    -0.146817289355E+02   -0.14928E-03   -0.53737E-05    13   0.592E-02    0.897E-03
RMM:  14    -0.146817918972E+02   -0.62962E-04   -0.11661E-05    13   0.319E-02
   3 F= -.14681792E+02 E0= -.14681792E+02  d E =-.407915E+02
 BRION: g(F)=  0.205E+01 g(S)=  0.000E+00 retain N=  1 mean eig= 0.02
 eig:   0.016
 bond charge predicted
       N       E                     dE             d eps       ncg     rms          rms(c)
DAV:   1    -0.147132023245E+02   -0.31473E-01   -0.13343E-01    20   0.383E+00    0.154E-01
RMM:   2    -0.147131784260E+02    0.23899E-04   -0.27944E-03    18   0.488E-01    0.739E-02
RMM:   3    -0.147130747662E+02    0.10366E-03   -0.31629E-04    16   0.143E-01    0.302E-02
RMM:   4    -0.147130658477E+02    0.89185E-05   -0.54976E-05    13   0.593E-02
   4 F= -.14713066E+02 E0= -.14713066E+02  d E =-.312740E-01
 BRION: g(F)=  0.156E+01 g(S)=  0.000E+00 retain N=  1 mean eig= 0.13
 eig:   0.126
 bond charge predicted
       N       E                     dE             d eps       ncg     rms          rms(c)
DAV:   1    -0.148018354020E+02   -0.88761E-01   -0.62190E+00    19   0.263E+01    0.117E+00
RMM:   2    -0.147998481081E+02    0.19873E-02   -0.12790E-01    18   0.344E+00    0.510E-01
RMM:   3    -0.147944451857E+02    0.54029E-02   -0.15892E-02    18   0.100E+00    0.191E-01
RMM:   4    -0.147942520583E+02    0.19313E-03   -0.24095E-03    18   0.352E-01    0.812E-02
RMM:   5    -0.147943238917E+02   -0.71833E-04   -0.55459E-05    13   0.687E-02
   5 F= -.14794324E+02 E0= -.14794324E+02  d E =-.812580E-01
 BRION: g(F)=  0.915E-01 g(S)=  0.000E+00 retain N=  1 mean eig= 0.10
 eig:   0.102
 bond charge predicted
       N       E                     dE             d eps       ncg     rms          rms(c)
DAV:   1    -0.147985975407E+02   -0.43455E-02   -0.23786E-01    20   0.518E+00    0.225E-01
RMM:   2    -0.147986313186E+02   -0.33778E-04   -0.50073E-03    18   0.669E-01    0.103E-01
RMM:   3    -0.147985796140E+02    0.51705E-04   -0.70662E-04    18   0.207E-01
   6 F= -.14798580E+02 E0= -.14798580E+02  d E =-.425572E-02
 BRION: g(F)=  0.172E-02 g(S)=  0.000E+00 retain N=  1 mean eig= 0.09
 eig:   0.089
 bond charge predicted
       N       E                     dE             d eps       ncg     rms          rms(c)
DAV:   1    -0.147987719301E+02   -0.14061E-03   -0.40614E-03    20   0.665E-01    0.264E-02
RMM:   2    -0.147987926745E+02   -0.20744E-04   -0.82980E-05    11   0.915E-02
   7 F= -.14798793E+02 E0= -.14798793E+02  d E =-.213061E-03
 BRION: g(F)=  0.128E-03 g(S)=  0.000E+00 retain N=  1 mean eig= 0.12
 eig:   0.123
 bond charge predicted
       N       E                     dE             d eps       ncg     rms          rms(c)
DAV:   1    -0.147988230891E+02   -0.51159E-04   -0.42108E-04    20   0.222E-01    0.106E-02
RMM:   2    -0.147988386231E+02   -0.15534E-04   -0.98755E-06     9   0.310E-02
   8 F= -.14798839E+02 E0= -.14798839E+02  d E =-.459486E-04
 BRION: g(F)=  0.397E-04 g(S)=  0.000E+00 retain N=  1 mean eig= 0.08
 eig:   0.079
 bond charge predicted
       N       E                     dE             d eps       ncg     rms          rms(c)
DAV:   1    -0.147988652923E+02   -0.42203E-04   -0.91686E-05    20   0.963E-02    0.383E-03
RMM:   2    -0.147988779789E+02   -0.12687E-04    0.00000E+00     6   0.131E-02
   9 F= -.14798878E+02 E0= -.14798878E+02  d E =-.393559E-04
 BRION: g(F)=  0.194E-04 g(S)=  0.000E+00 retain N=  1 mean eig= 0.26
 eig:   0.262
 bond charge predicted
       N       E                     dE             d eps       ncg     rms          rms(c)
DAV:   1    -0.147989063500E+02   -0.41058E-04   -0.31767E-04    20   0.190E-01    0.697E-03
RMM:   2    -0.147989138529E+02   -0.75029E-05   -0.64018E-06     9   0.254E-02
  10 F= -.14798914E+02 E0= -.14798914E+02  d E =-.358740E-04
 BRION: g(F)=  0.640E-04 g(S)=  0.000E+00 retain N=  1 mean eig= 0.09
 eig:   0.093
 bond charge predicted
       N       E                     dE             d eps       ncg     rms          rms(c)
DAV:   1    -0.147989263755E+02   -0.20026E-04   -0.15650E-04    20   0.131E-01    0.512E-03
RMM:   2    -0.147989304159E+02   -0.40404E-05   -0.24815E-06     9   0.168E-02
  11 F= -.14798930E+02 E0= -.14798930E+02  d E =-.165630E-04
 BRION: g(F)=  0.347E-05 g(S)=  0.000E+00 retain N=  1 mean eig= 0.12
 eig:   0.121
 reached required accuracy - stopping structural energy minimisation
 running on    1 total cores
 distrk:  each k-point on    1 cores,    1 groups
 distr:  one band on    1 cores,    1 groups
 using from now: INCAR     
 vasp.5.3.3 18Dez12 (build Sep  7 2015 22:32:56) complex                        
  
 POSCAR found :  2 types and       2 ions
 LDA part: xc-table for Pade appr. of Perdew
 POSCAR, INCAR and KPOINTS ok, starting setup
 WARNING: small aliasing (wrap around) errors must be expected
 FFT: planning ...
 WAVECAR not read
 WARNING: random wavefunctions but no delay for mixing, default for NELMDL
 entering main loop
       N       E                     dE             d eps       ncg     rms          rms(c)
DAV:   1     0.790394779508E+02    0.79039E+02   -0.19218E+03    18   0.462E+02
DAV:   2     0.172341353742E+01   -0.77316E+02   -0.77084E+02    34   0.118E+02
DAV:   3    -0.150623054843E+02   -0.16786E+02   -0.16781E+02    35   0.747E+01
DAV:   4    -0.152967376369E+02   -0.23443E+00   -0.23443E+00    20   0.892E+00
DAV:   5    -0.152985691982E+02   -0.18316E-02   -0.18316E-02    27   0.883E-01    0.636E+00
RMM:   6    -0.147941757677E+02    0.50439E+00   -0.16233E+00    18   0.103E+01    0.352E+00
RMM:   7    -0.146692814307E+02    0.12489E+00   -0.17984E-01    18   0.314E+00    0.195E+00
RMM:   8    -0.146369824576E+02    0.32299E-01   -0.13248E-01    18   0.252E+00    0.353E-01
RMM:   9    -0.146363927141E+02    0.58974E-03   -0.51691E-03    18   0.571E-01    0.155E-01
RMM:  10    -0.146369784694E+02   -0.58576E-03   -0.15112E-03    18   0.344E-01    0.354E-02
RMM:  11    -0.146385171716E+02   -0.15387E-02   -0.71707E-04    17   0.163E-01    0.391E-02
RMM:  12    -0.146390389004E+02   -0.52173E-03   -0.18934E-04    14   0.993E-02    0.125E-02
RMM:  13    -0.146400424309E+02   -0.10035E-02   -0.15368E-04    14   0.676E-02    0.150E-02
RMM:  14    -0.146400946710E+02   -0.52240E-04   -0.21643E-05    12   0.314E-02
   1 F= -.14640095E+02 E0= -.14640095E+02  d E =-.146401E+02
 BRION: g(F)=  0.267E+01 g(S)=  0.000E+00
 bond charge predicted
       N       E                     dE             d eps       ncg     rms          rms(c)
DAV:   1     0.227905938358E+02    0.37431E+02   -0.76592E+02    18   0.294E+02    0.257E+01
RMM:   2     0.243673466366E+02    0.15768E+01   -0.25160E+01    18   0.541E+01    0.314E+01
RMM:   3     0.214809441214E+02   -0.28864E+01   -0.38080E+00    18   0.180E+01    0.492E+01
RMM:   4     0.261151537327E+02    0.46342E+01   -0.15585E+01    18   0.336E+01    0.690E+00
RMM:   5     0.261262176428E+02    0.11064E-01   -0.25129E-01    18   0.387E+00    0.366E+00
RMM:   6     0.261218257576E+02   -0.43919E-02   -0.21385E-02    19   0.109E+00    0.199E+00
RMM:   7     0.261171327668E+02   -0.46930E-02   -0.86305E-03    18   0.918E-01    0.268E-01
RMM:   8     0.261170034845E+02   -0.12928E-03   -0.15181E-03    18   0.300E-01    0.539E-02
RMM:   9     0.261133464210E+02   -0.36571E-02   -0.43621E-03    18   0.425E-01    0.263E-01
RMM:  10     0.261120824977E+02   -0.12639E-02   -0.17681E-03    18   0.308E-01    0.102E-01
RMM:  11     0.261103407686E+02   -0.17417E-02   -0.51036E-04    15   0.156E-01    0.221E-02
RMM:  12     0.261100182184E+02   -0.32255E-03   -0.11172E-04    13   0.800E-02    0.174E-02
RMM:  13     0.261098539646E+02   -0.16425E-03   -0.18859E-05    12   0.305E-02    0.144E-02
RMM:  14     0.261096932765E+02   -0.16069E-03   -0.19485E-05    12   0.263E-02    0.521E-03
RMM:  15     0.261096639435E+02   -0.29333E-04   -0.80724E-06    12   0.217E-02
   2 F= 0.26109664E+02 E0= 0.26109664E+02  d E =0.407498E+02
 BRION: g(F)=  0.944E+04 g(S)=  0.000E+00 retain N=  1 mean eig= 0.02
 eig:   0.017
 bond charge predicted
       N       E                     dE             d eps       ncg     rms          rms(c)
DAV:   1    -0.192695305755E+02   -0.45379E+02   -0.74419E+02    18   0.293E+02    0.366E+01
RMM:   2    -0.156534901170E+02    0.36160E+01   -0.19204E+01    18   0.400E+01    0.214E+01
RMM:   3    -0.147200833161E+02    0.93341E+00   -0.67570E+00    18   0.186E+01    0.455E+00
RMM:   4    -0.147485040250E+02   -0.28421E-01   -0.37909E-01    20   0.427E+00    0.144E+00
RMM:   5    -0.148025696156E+02   -0.54066E-01   -0.14971E+00    18   0.738E+00    0.194E+00
RMM:   6    -0.146837322691E+02    0.11884E+00   -0.10864E-01    18   0.254E+00    0.656E-01
RMM:   7    -0.146772195726E+02    0.65127E-02   -0.38093E-02    18   0.137E+00    0.698E-02
RMM:   8    -0.146789170289E+02   -0.16975E-02   -0.21097E-03    18   0.385E-01    0.106E-01
RMM:   9    -0.146800565009E+02   -0.11395E-02   -0.77533E-04    16   0.171E-01    0.526E-02
RMM:  10    -0.146810984777E+02   -0.10420E-02   -0.14063E-03    18   0.265E-01    0.926E-02
RMM:  11    -0.146814370745E+02   -0.33860E-03   -0.10060E-03    18   0.239E-01    0.607E-02
RMM:  12    -0.146815796584E+02   -0.14258E-03   -0.11123E-04    13   0.922E-02    0.927E-03
RMM:  13    -0.146817289355E+02   -0.14928E-03   -0.53737E-05    13   0.592E-02    0.897E-03
RMM:  14    -0.146817918972E+02   -0.62962E-04   -0.11661E-05    13   0.319E-02
   3 F= -.14681792E+02 E0= -.14681792E+02  d E =-.407915E+02
 BRION: g(F)=  0.205E+01 g(S)=  0.000E+00 retain N=  1 mean eig= 0.02
 eig:   0.016
 bond charge predicted
       N       E                     dE             d eps       ncg     rms          rms(c)
DAV:   1    -0.147132023245E+02   -0.31473E-01   -0.13343E-01    20   0.383E+00    0.154E-01
RMM:   2    -0.147131784260E+02    0.23899E-04   -0.27944E-03    18   0.488E-01    0.739E-02
RMM:   3    -0.147130747662E+02    0.10366E-03   -0.31629E-04    16   0.143E-01    0.302E-02
RMM:   4    -0.147130658477E+02    0.89185E-05   -0.54976E-05    13   0.593E-02
   4 F= -.14713066E+02 E0= -.14713066E+02  d E =-.312740E-01
 BRION: g(F)=  0.156E+01 g(S)=  0.000E+00 retain N=  1 mean eig= 0.13
 eig:   0.126
 bond charge predicted
       N       E                     dE             d eps       ncg     rms          rms(c)
DAV:   1    -0.148018354020E+02   -0.88761E-01   -0.62190E+00    19   0.263E+01    0.117E+00
RMM:   2    -0.147998481081E+02    0.19873E-02   -0.12790E-01    18   0.344E+00    0.510E-01
RMM:   3    -0.147944451857E+02    0.54029E-02   -0.15892E-02    18   0.100E+00    0.191E-01
RMM:   4    -0.147942520583E+02    0.19313E-03   -0.24095E-03    18   0.352E-01    0.812E-02
RMM:   5    -0.147943238917E+02   -0.71833E-04   -0.55459E-05    13   0.687E-02
   5 F= -.14794324E+02 E0= -.14794324E+02  d E =-.812580E-01
 BRION: g(F)=  0.915E-01 g(S)=  0.000E+00 retain N=  1 mean eig= 0.10
 eig:   0.102
 bond charge predicted
       N       E                     dE             d eps       ncg     rms          rms(c)
DAV:   1    -0.147985975407E+02   -0.43455E-02   -0.23786E-01    20   0.518E+00    0.225E-01
RMM:   2    -0.147986313186E+02   -0.33778E-04   -0.50073E-03    18   0.669E-01    0.103E-01
RMM:   3    -0.147985796140E+02    0.51705E-04   -0.70662E-04    18   0.207E-01
   6 F= -.14798580E+02 E0= -.14798580E+02  d E =-.425572E-02
 BRION: g(F)=  0.172E-02 g(S)=  0.000E+00 retain N=  1 mean eig= 0.09
 eig:   0.089
 bond charge predicted
       N       E                     dE             d eps       ncg     rms          rms(c)
DAV:   1    -0.147987719301E+02   -0.14061E-03   -0.40614E-03    20   0.665E-01    0.264E-02
RMM:   2    -0.147987926745E+02   -0.20744E-04   -0.82980E-05    11   0.915E-02
   7 F= -.14798793E+02 E0= -.14798793E+02  d E =-.213061E-03
 BRION: g(F)=  0.128E-03 g(S)=  0.000E+00 retain N=  1 mean eig= 0.12
 eig:   0.123
 bond charge predicted
       N       E                     dE             d eps       ncg     rms          rms(c)
DAV:   1    -0.147988230891E+02   -0.51159E-04   -0.42108E-04    20   0.222E-01    0.106E-02
RMM:   2    -0.147988386231E+02   -0.15534E-04   -0.98755E-06     9   0.310E-02
   8 F= -.14798839E+02 E0= -.14798839E+02  d E =-.459486E-04
 BRION: g(F)=  0.397E-04 g(S)=  0.000E+00 retain N=  1 mean eig= 0.08
 eig:   0.079
 bond charge predicted
       N       E                     dE             d eps       ncg     rms          rms(c)
DAV:   1    -0.147988652923E+02   -0.42203E-04   -0.91686E-05    20   0.963E-02    0.383E-03
RMM:   2    -0.147988779789E+02   -0.12687E-04    0.00000E+00     6   0.131E-02
   9 F= -.14798878E+02 E0= -.14798878E+02  d E =-.393559E-04
 BRION: g(F)=  0.194E-04 g(S)=  0.000E+00 retain N=  1 mean eig= 0.26
 eig:   0.262
 bond charge predicted
       N       E                     dE             d eps       ncg     rms          rms(c)
DAV:   1    -0.147989063500E+02   -0.41058E-04   -0.31767E-04    20   0.190E-01    0.697E-03
RMM:   2    -0.147989138529E+02   -0.75029E-05   -0.64018E-06     9   0.254E-02
forrtl: error (69): process interrupted (SIGINT)
Image              PC                Routine            Line        Source             
vasp               0000000003E3FF51  Unknown               Unknown  Unknown
vasp               0000000003E3E6A7  Unknown               Unknown  Unknown
vasp               0000000003DD7E44  Unknown               Unknown  Unknown
vasp               0000000003DD7C56  Unknown               Unknown  Unknown
vasp               0000000003D8487F  Unknown               Unknown  Unknown
vasp               0000000003D8AE77  Unknown               Unknown  Unknown
libpthread.so.0    00002B988070F340  Unknown               Unknown  Unknown
vasp               00000000004DF6FC  Unknown               Unknown  Unknown
vasp               00000000004DE8ED  Unknown               Unknown  Unknown
vasp               0000000000661665  Unknown               Unknown  Unknown
vasp               000000000065FD72  Unknown               Unknown  Unknown
vasp               0000000000895CFA  Unknown               Unknown  Unknown
vasp               0000000000C54A3E  Unknown               Unknown  Unknown
vasp               000000000042BF8A  Unknown               Unknown  Unknown
vasp               000000000040481E  Unknown               Unknown  Unknown
libc.so.6          00002B98816A1EC5  Unknown               Unknown  Unknown
vasp               0000000000404729  Unknown               Unknown  Unknown
 running on    1 total cores
 distrk:  each k-point on    1 cores,    1 groups
 distr:  one band on    1 cores,    1 groups
 using from now: INCAR     
 vasp.5.3.3 18Dez12 (build Sep  7 2015 22:32:56) complex                        
  
 POSCAR found :  2 types and       2 ions
 LDA part: xc-table for Pade appr. of Perdew
 POSCAR, INCAR and KPOINTS ok, starting setup
 WARNING: small aliasing (wrap around) errors must be expected
 FFT: planning ...
 WAVECAR not read
 WARNING: random wavefunctions but no delay for mixing, default for NELMDL
 entering main loop
       N       E                     dE             d eps       ncg     rms          rms(c)
DAV:   1     0.790394779508E+02    0.79039E+02   -0.19218E+03    18   0.462E+02
DAV:   2     0.172341353742E+01   -0.77316E+02   -0.77084E+02    34   0.118E+02
DAV:   3    -0.150623054843E+02   -0.16786E+02   -0.16781E+02    35   0.747E+01
DAV:   4    -0.152967376369E+02   -0.23443E+00   -0.23443E+00    20   0.892E+00
DAV:   5    -0.152985691982E+02   -0.18316E-02   -0.18316E-02    27   0.883E-01    0.636E+00
RMM:   6    -0.147941757677E+02    0.50439E+00   -0.16233E+00    18   0.103E+01    0.352E+00
RMM:   7    -0.146692814307E+02    0.12489E+00   -0.17984E-01    18   0.314E+00    0.195E+00
RMM:   8    -0.146369824576E+02    0.32299E-01   -0.13248E-01    18   0.252E+00    0.353E-01
RMM:   9    -0.146363927141E+02    0.58974E-03   -0.51691E-03    18   0.571E-01    0.155E-01
RMM:  10    -0.146369784694E+02   -0.58576E-03   -0.15112E-03    18   0.344E-01    0.354E-02
RMM:  11    -0.146385171716E+02   -0.15387E-02   -0.71707E-04    17   0.163E-01    0.391E-02
RMM:  12    -0.146390389004E+02   -0.52173E-03   -0.18934E-04    14   0.993E-02    0.125E-02
RMM:  13    -0.146400424309E+02   -0.10035E-02   -0.15368E-04    14   0.676E-02    0.150E-02
RMM:  14    -0.146400946710E+02   -0.52240E-04   -0.21643E-05    12   0.314E-02
   1 F= -.14640095E+02 E0= -.14640095E+02  d E =-.146401E+02
 BRION: g(F)=  0.267E+01 g(S)=  0.000E+00
 bond charge predicted
       N       E                     dE             d eps       ncg     rms          rms(c)
DAV:   1     0.227905938358E+02    0.37431E+02   -0.76592E+02    18   0.294E+02    0.257E+01
RMM:   2     0.243673466366E+02    0.15768E+01   -0.25160E+01    18   0.541E+01    0.314E+01
RMM:   3     0.214809441214E+02   -0.28864E+01   -0.38080E+00    18   0.180E+01    0.492E+01
RMM:   4     0.261151537327E+02    0.46342E+01   -0.15585E+01    18   0.336E+01    0.690E+00
RMM:   5     0.261262176428E+02    0.11064E-01   -0.25129E-01    18   0.387E+00    0.366E+00
RMM:   6     0.261218257576E+02   -0.43919E-02   -0.21385E-02    19   0.109E+00    0.199E+00
RMM:   7     0.261171327668E+02   -0.46930E-02   -0.86305E-03    18   0.918E-01    0.268E-01
RMM:   8     0.261170034845E+02   -0.12928E-03   -0.15181E-03    18   0.300E-01    0.539E-02
RMM:   9     0.261133464210E+02   -0.36571E-02   -0.43621E-03    18   0.425E-01    0.263E-01
RMM:  10     0.261120824977E+02   -0.12639E-02   -0.17681E-03    18   0.308E-01    0.102E-01
RMM:  11     0.261103407686E+02   -0.17417E-02   -0.51036E-04    15   0.156E-01    0.221E-02
RMM:  12     0.261100182184E+02   -0.32255E-03   -0.11172E-04    13   0.800E-02    0.174E-02
RMM:  13     0.261098539646E+02   -0.16425E-03   -0.18859E-05    12   0.305E-02    0.144E-02
RMM:  14     0.261096932765E+02   -0.16069E-03   -0.19485E-05    12   0.263E-02    0.521E-03
RMM:  15     0.261096639435E+02   -0.29333E-04   -0.80724E-06    12   0.217E-02
   2 F= 0.26109664E+02 E0= 0.26109664E+02  d E =0.407498E+02
 BRION: g(F)=  0.944E+04 g(S)=  0.000E+00 retain N=  1 mean eig= 0.02
 eig:   0.017
 bond charge predicted
       N       E                     dE             d eps       ncg     rms          rms(c)
DAV:   1    -0.192695305755E+02   -0.45379E+02   -0.74419E+02    18   0.293E+02    0.366E+01
RMM:   2    -0.156534901170E+02    0.36160E+01   -0.19204E+01    18   0.400E+01    0.214E+01
RMM:   3    -0.147200833161E+02    0.93341E+00   -0.67570E+00    18   0.186E+01    0.455E+00
RMM:   4    -0.147485040250E+02   -0.28421E-01   -0.37909E-01    20   0.427E+00    0.144E+00
RMM:   5    -0.148025696156E+02   -0.54066E-01   -0.14971E+00    18   0.738E+00    0.194E+00
RMM:   6    -0.146837322691E+02    0.11884E+00   -0.10864E-01    18   0.254E+00    0.656E-01
RMM:   7    -0.146772195726E+02    0.65127E-02   -0.38093E-02    18   0.137E+00    0.698E-02
RMM:   8    -0.146789170289E+02   -0.16975E-02   -0.21097E-03    18   0.385E-01    0.106E-01
RMM:   9    -0.146800565009E+02   -0.11395E-02   -0.77533E-04    16   0.171E-01    0.526E-02
RMM:  10    -0.146810984777E+02   -0.10420E-02   -0.14063E-03    18   0.265E-01    0.926E-02
RMM:  11    -0.146814370745E+02   -0.33860E-03   -0.10060E-03    18   0.239E-01    0.607E-02
RMM:  12    -0.146815796584E+02   -0.14258E-03   -0.11123E-04    13   0.922E-02    0.927E-03
RMM:  13    -0.146817289355E+02   -0.14928E-03   -0.53737E-05    13   0.592E-02    0.897E-03
RMM:  14    -0.146817918972E+02   -0.62962E-04   -0.11661E-05    13   0.319E-02
   3 F= -.14681792E+02 E0= -.14681792E+02  d E =-.407915E+02
 BRION: g(F)=  0.205E+01 g(S)=  0.000E+00 retain N=  1 mean eig= 0.02
 eig:   0.016
 bond charge predicted
       N       E                     dE             d eps       ncg     rms          rms(c)
DAV:   1    -0.147132023245E+02   -0.31473E-01   -0.13343E-01    20   0.383E+00    0.154E-01
RMM:   2    -0.147131784260E+02    0.23899E-04   -0.27944E-03    18   0.488E-01    0.739E-02
RMM:   3    -0.147130747662E+02    0.10366E-03   -0.31629E-04    16   0.143E-01    0.302E-02
RMM:   4    -0.147130658477E+02    0.89185E-05   -0.54976E-05    13   0.593E-02
   4 F= -.14713066E+02 E0= -.14713066E+02  d E =-.312740E-01
 BRION: g(F)=  0.156E+01 g(S)=  0.000E+00 retain N=  1 mean eig= 0.13
 eig:   0.126
 bond charge predicted
       N       E                     dE             d eps       ncg     rms          rms(c)
DAV:   1    -0.148018354020E+02   -0.88761E-01   -0.62190E+00    19   0.263E+01    0.117E+00
RMM:   2    -0.147998481081E+02    0.19873E-02   -0.12790E-01    18   0.344E+00    0.510E-01
RMM:   3    -0.147944451857E+02    0.54029E-02   -0.15892E-02    18   0.100E+00    0.191E-01
RMM:   4    -0.147942520583E+02    0.19313E-03   -0.24095E-03    18   0.352E-01    0.812E-02
RMM:   5    -0.147943238917E+02   -0.71833E-04   -0.55459E-05    13   0.687E-02
   5 F= -.14794324E+02 E0= -.14794324E+02  d E =-.812580E-01
 BRION: g(F)=  0.915E-01 g(S)=  0.000E+00 retain N=  1 mean eig= 0.10
 eig:   0.102
 bond charge predicted
       N       E                     dE             d eps       ncg     rms          rms(c)
DAV:   1    -0.147985975407E+02   -0.43455E-02   -0.23786E-01    20   0.518E+00    0.225E-01
RMM:   2    -0.147986313186E+02   -0.33778E-04   -0.50073E-03    18   0.669E-01    0.103E-01
RMM:   3    -0.147985796140E+02    0.51705E-04   -0.70662E-04    18   0.207E-01
   6 F= -.14798580E+02 E0= -.14798580E+02  d E =-.425572E-02
 BRION: g(F)=  0.172E-02 g(S)=  0.000E+00 retain N=  1 mean eig= 0.09
 eig:   0.089
 bond charge predicted
       N       E                     dE             d eps       ncg     rms          rms(c)
DAV:   1    -0.147987719301E+02   -0.14061E-03   -0.40614E-03    20   0.665E-01    0.264E-02
RMM:   2    -0.147987926745E+02   -0.20744E-04   -0.82980E-05    11   0.915E-02
   7 F= -.14798793E+02 E0= -.14798793E+02  d E =-.213061E-03
 BRION: g(F)=  0.128E-03 g(S)=  0.000E+00 retain N=  1 mean eig= 0.12
 eig:   0.123
 bond charge predicted
       N       E                     dE             d eps       ncg     rms          rms(c)
DAV:   1    -0.147988230891E+02   -0.51159E-04   -0.42108E-04    20   0.222E-01    0.106E-02
RMM:   2    -0.147988386231E+02   -0.15534E-04   -0.98755E-06     9   0.310E-02
   8 F= -.14798839E+02 E0= -.14798839E+02  d E =-.459486E-04
 BRION: g(F)=  0.397E-04 g(S)=  0.000E+00 retain N=  1 mean eig= 0.08
 eig:   0.079
 bond charge predicted
       N       E                     dE             d eps       ncg     rms          rms(c)
DAV:   1    -0.147988652923E+02   -0.42203E-04   -0.91686E-05    20   0.963E-02    0.383E-03
RMM:   2    -0.147988779789E+02   -0.12687E-04    0.00000E+00     6   0.131E-02
   9 F= -.14798878E+02 E0= -.14798878E+02  d E =-.393559E-04
 BRION: g(F)=  0.194E-04 g(S)=  0.000E+00 retain N=  1 mean eig= 0.26
 eig:   0.262
 bond charge predicted
       N       E                     dE             d eps       ncg     rms          rms(c)
DAV:   1    -0.147989063500E+02   -0.41058E-04   -0.31767E-04    20   0.190E-01    0.697E-03
RMM:   2    -0.147989138529E+02   -0.75029E-05   -0.64018E-06     9   0.254E-02
  10 F= -.14798914E+02 E0= -.14798914E+02  d E =-.358740E-04
 BRION: g(F)=  0.640E-04 g(S)=  0.000E+00 retain N=  1 mean eig= 0.09
 eig:   0.093
 bond charge predicted
       N       E                     dE             d eps       ncg     rms          rms(c)
DAV:   1    -0.147989263755E+02   -0.20026E-04   -0.15650E-04    20   0.131E-01    0.512E-03
RMM:   2    -0.147989304159E+02   -0.40404E-05   -0.24815E-06     9   0.168E-02
  11 F= -.14798930E+02 E0= -.14798930E+02  d E =-.165630E-04
 BRION: g(F)=  0.347E-05 g(S)=  0.000E+00 retain N=  1 mean eig= 0.12
 eig:   0.121
 reached required accuracy - stopping structural energy minimisation
