 running on    1 total cores
 distrk:  each k-point on    1 cores,    1 groups
 distr:  one band on    1 cores,    1 groups
 using from now: INCAR     
 vasp.5.3.3 18Dez12 (build Sep  7 2015 22:32:56) complex                        
  
 POSCAR found :  2 types and       2 ions
 LDA part: xc-table for Pade appr. of Perdew
 POSCAR, INCAR and KPOINTS ok, starting setup
 WARNING: small aliasing (wrap around) errors must be expected
 FFT: planning ...
 WAVECAR not read
 WARNING: random wavefunctions but no delay for mixing, default for NELMDL
 entering main loop
       N       E                     dE             d eps       ncg     rms          rms(c)
DAV:   1     0.790394779508E+02    0.79039E+02   -0.19218E+03    18   0.462E+02
DAV:   2     0.172341353742E+01   -0.77316E+02   -0.77084E+02    34   0.118E+02
DAV:   3    -0.150623054843E+02   -0.16786E+02   -0.16781E+02    35   0.747E+01
DAV:   4    -0.152967376369E+02   -0.23443E+00   -0.23443E+00    20   0.892E+00
DAV:   5    -0.152985691982E+02   -0.18316E-02   -0.18316E-02    27   0.883E-01    0.636E+00
RMM:   6    -0.147941757677E+02    0.50439E+00   -0.16233E+00    18   0.103E+01    0.352E+00
RMM:   7    -0.146692814307E+02    0.12489E+00   -0.17984E-01    18   0.314E+00    0.195E+00
RMM:   8    -0.146369824576E+02    0.32299E-01   -0.13248E-01    18   0.252E+00    0.353E-01
RMM:   9    -0.146363927141E+02    0.58974E-03   -0.51691E-03    18   0.571E-01    0.155E-01
RMM:  10    -0.146369784694E+02   -0.58576E-03   -0.15112E-03    18   0.344E-01    0.354E-02
RMM:  11    -0.146385171716E+02   -0.15387E-02   -0.71707E-04    17   0.163E-01    0.391E-02
RMM:  12    -0.146390389004E+02   -0.52173E-03   -0.18934E-04    14   0.993E-02    0.125E-02
RMM:  13    -0.146400424309E+02   -0.10035E-02   -0.15368E-04    14   0.676E-02    0.150E-02
RMM:  14    -0.146400946710E+02   -0.52240E-04   -0.21643E-05    12   0.314E-02
   1 F= -.14640095E+02 E0= -.14640095E+02  d E =-.146401E+02
 BRION: g(F)=  0.267E+01 g(S)=  0.000E+00
 bond charge predicted
       N       E                     dE             d eps       ncg     rms          rms(c)
DAV:   1     0.227905938358E+02    0.37431E+02   -0.76592E+02    18   0.294E+02    0.257E+01
RMM:   2     0.243673466366E+02    0.15768E+01   -0.25160E+01    18   0.541E+01    0.314E+01
RMM:   3     0.214809441214E+02   -0.28864E+01   -0.38080E+00    18   0.180E+01    0.492E+01
RMM:   4     0.261151537327E+02    0.46342E+01   -0.15585E+01    18   0.336E+01    0.690E+00
RMM:   5     0.261262176428E+02    0.11064E-01   -0.25129E-01    18   0.387E+00    0.366E+00
RMM:   6     0.261218257576E+02   -0.43919E-02   -0.21385E-02    19   0.109E+00    0.199E+00
RMM:   7     0.261171327668E+02   -0.46930E-02   -0.86305E-03    18   0.918E-01    0.268E-01
RMM:   8     0.261170034845E+02   -0.12928E-03   -0.15181E-03    18   0.300E-01    0.539E-02
RMM:   9     0.261133464210E+02   -0.36571E-02   -0.43621E-03    18   0.425E-01    0.263E-01
RMM:  10     0.261120824977E+02   -0.12639E-02   -0.17681E-03    18   0.308E-01    0.102E-01
RMM:  11     0.261103407686E+02   -0.17417E-02   -0.51036E-04    15   0.156E-01    0.221E-02
RMM:  12     0.261100182184E+02   -0.32255E-03   -0.11172E-04    13   0.800E-02    0.174E-02
RMM:  13     0.261098539646E+02   -0.16425E-03   -0.18859E-05    12   0.305E-02    0.144E-02
RMM:  14     0.261096932765E+02   -0.16069E-03   -0.19485E-05    12   0.263E-02    0.521E-03
RMM:  15     0.261096639435E+02   -0.29333E-04   -0.80724E-06    12   0.217E-02
   2 F= 0.26109664E+02 E0= 0.26109664E+02  d E =0.407498E+02
 BRION: g(F)=  0.944E+04 g(S)=  0.000E+00 retain N=  1 mean eig= 0.02
 eig:   0.017
 bond charge predicted
       N       E                     dE             d eps       ncg     rms          rms(c)
DAV:   1    -0.192695305755E+02   -0.45379E+02   -0.74419E+02    18   0.293E+02    0.366E+01
RMM:   2    -0.156534901170E+02    0.36160E+01   -0.19204E+01    18   0.400E+01    0.214E+01
RMM:   3    -0.147200833161E+02    0.93341E+00   -0.67570E+00    18   0.186E+01    0.455E+00
RMM:   4    -0.147485040250E+02   -0.28421E-01   -0.37909E-01    20   0.427E+00    0.144E+00
RMM:   5    -0.148025696156E+02   -0.54066E-01   -0.14971E+00    18   0.738E+00    0.194E+00
RMM:   6    -0.146837322691E+02    0.11884E+00   -0.10864E-01    18   0.254E+00    0.656E-01
RMM:   7    -0.146772195726E+02    0.65127E-02   -0.38093E-02    18   0.137E+00    0.698E-02
RMM:   8    -0.146789170289E+02   -0.16975E-02   -0.21097E-03    18   0.385E-01    0.106E-01
RMM:   9    -0.146800565009E+02   -0.11395E-02   -0.77533E-04    16   0.171E-01    0.526E-02
RMM:  10    -0.146810984777E+02   -0.10420E-02   -0.14063E-03    18   0.265E-01    0.926E-02
RMM:  11    -0.146814370745E+02   -0.33860E-03   -0.10060E-03    18   0.239E-01    0.607E-02
RMM:  12    -0.146815796584E+02   -0.14258E-03   -0.11123E-04    13   0.922E-02    0.927E-03
RMM:  13    -0.146817289355E+02   -0.14928E-03   -0.53737E-05    13   0.592E-02    0.897E-03
RMM:  14    -0.146817918972E+02   -0.62962E-04   -0.11661E-05    13   0.319E-02
   3 F= -.14681792E+02 E0= -.14681792E+02  d E =-.407915E+02
 BRION: g(F)=  0.205E+01 g(S)=  0.000E+00 retain N=  1 mean eig= 0.02
 eig:   0.016
 bond charge predicted
       N       E                     dE             d eps       ncg     rms          rms(c)
DAV:   1    -0.147132023245E+02   -0.31473E-01   -0.13343E-01    20   0.383E+00    0.154E-01
RMM:   2    -0.147131784260E+02    0.23899E-04   -0.27944E-03    18   0.488E-01    0.739E-02
RMM:   3    -0.147130747662E+02    0.10366E-03   -0.31629E-04    16   0.143E-01    0.302E-02
RMM:   4    -0.147130658477E+02    0.89185E-05   -0.54976E-05    13   0.593E-02
   4 F= -.14713066E+02 E0= -.14713066E+02  d E =-.312740E-01
 BRION: g(F)=  0.156E+01 g(S)=  0.000E+00 retain N=  1 mean eig= 0.13
 eig:   0.126
 bond charge predicted
       N       E                     dE             d eps       ncg     rms          rms(c)
DAV:   1    -0.148018354020E+02   -0.88761E-01   -0.62190E+00    19   0.263E+01    0.117E+00
RMM:   2    -0.147998481081E+02    0.19873E-02   -0.12790E-01    18   0.344E+00    0.510E-01
RMM:   3    -0.147944451857E+02    0.54029E-02   -0.15892E-02    18   0.100E+00    0.191E-01
RMM:   4    -0.147942520583E+02    0.19313E-03   -0.24095E-03    18   0.352E-01    0.812E-02
RMM:   5    -0.147943238917E+02   -0.71833E-04   -0.55459E-05    13   0.687E-02
   5 F= -.14794324E+02 E0= -.14794324E+02  d E =-.812580E-01
 BRION: g(F)=  0.915E-01 g(S)=  0.000E+00 retain N=  1 mean eig= 0.10
 eig:   0.102
 bond charge predicted
       N       E                     dE             d eps       ncg     rms          rms(c)
DAV:   1    -0.147985975407E+02   -0.43455E-02   -0.23786E-01    20   0.518E+00    0.225E-01
RMM:   2    -0.147986313186E+02   -0.33778E-04   -0.50073E-03    18   0.669E-01    0.103E-01
RMM:   3    -0.147985796140E+02    0.51705E-04   -0.70662E-04    18   0.207E-01
   6 F= -.14798580E+02 E0= -.14798580E+02  d E =-.425572E-02
 BRION: g(F)=  0.172E-02 g(S)=  0.000E+00 retain N=  1 mean eig= 0.09
 eig:   0.089
 bond charge predicted
       N       E                     dE             d eps       ncg     rms          rms(c)
DAV:   1    -0.147987719301E+02   -0.14061E-03   -0.40614E-03    20   0.665E-01    0.264E-02
RMM:   2    -0.147987926745E+02   -0.20744E-04   -0.82980E-05    11   0.915E-02
   7 F= -.14798793E+02 E0= -.14798793E+02  d E =-.213061E-03
 BRION: g(F)=  0.128E-03 g(S)=  0.000E+00 retain N=  1 mean eig= 0.12
 eig:   0.123
 bond charge predicted
       N       E                     dE             d eps       ncg     rms          rms(c)
DAV:   1    -0.147988230891E+02   -0.51159E-04   -0.42108E-04    20   0.222E-01    0.106E-02
RMM:   2    -0.147988386231E+02   -0.15534E-04   -0.98755E-06     9   0.310E-02
   8 F= -.14798839E+02 E0= -.14798839E+02  d E =-.459486E-04
 BRION: g(F)=  0.397E-04 g(S)=  0.000E+00 retain N=  1 mean eig= 0.08
 eig:   0.079
 bond charge predicted
       N       E                     dE             d eps       ncg     rms          rms(c)
DAV:   1    -0.147988652923E+02   -0.42203E-04   -0.91686E-05    20   0.963E-02    0.383E-03
RMM:   2    -0.147988779789E+02   -0.12687E-04    0.00000E+00     6   0.131E-02
   9 F= -.14798878E+02 E0= -.14798878E+02  d E =-.393559E-04
 BRION: g(F)=  0.194E-04 g(S)=  0.000E+00 retain N=  1 mean eig= 0.26
 eig:   0.262
 bond charge predicted
       N       E                     dE             d eps       ncg     rms          rms(c)
DAV:   1    -0.147989063500E+02   -0.41058E-04   -0.31767E-04    20   0.190E-01    0.697E-03
RMM:   2    -0.147989138529E+02   -0.75029E-05   -0.64018E-06     9   0.254E-02
  10 F= -.14798914E+02 E0= -.14798914E+02  d E =-.358740E-04
 BRION: g(F)=  0.640E-04 g(S)=  0.000E+00 retain N=  1 mean eig= 0.09
 eig:   0.093
 bond charge predicted
       N       E                     dE             d eps       ncg     rms          rms(c)
DAV:   1    -0.147989263755E+02   -0.20026E-04   -0.15650E-04    20   0.131E-01    0.512E-03
RMM:   2    -0.147989304159E+02   -0.40404E-05   -0.24815E-06     9   0.168E-02
  11 F= -.14798930E+02 E0= -.14798930E+02  d E =-.165630E-04
 BRION: g(F)=  0.347E-05 g(S)=  0.000E+00 retain N=  1 mean eig= 0.12
 eig:   0.121
 reached required accuracy - stopping structural energy minimisation
 running on    1 total cores
 distrk:  each k-point on    1 cores,    1 groups
 distr:  one band on    1 cores,    1 groups
 using from now: INCAR     
 vasp.5.3.3 18Dez12 (build Sep  7 2015 22:32:56) complex                        
  
 POSCAR found :  2 types and       2 ions
 LDA part: xc-table for Pade appr. of Perdew
 POSCAR, INCAR and KPOINTS ok, starting setup
 WARNING: small aliasing (wrap around) errors must be expected
 FFT: planning ...
 WAVECAR not read
 WARNING: random wavefunctions but no delay for mixing, default for NELMDL
 entering main loop
       N       E                     dE             d eps       ncg     rms          rms(c)
DAV:   1     0.790394779508E+02    0.79039E+02   -0.19218E+03    18   0.462E+02
DAV:   2     0.172341353742E+01   -0.77316E+02   -0.77084E+02    34   0.118E+02
DAV:   3    -0.150623054843E+02   -0.16786E+02   -0.16781E+02    35   0.747E+01
DAV:   4    -0.152967376369E+02   -0.23443E+00   -0.23443E+00    20   0.892E+00
DAV:   5    -0.152985691982E+02   -0.18316E-02   -0.18316E-02    27   0.883E-01    0.636E+00
RMM:   6    -0.147941757677E+02    0.50439E+00   -0.16233E+00    18   0.103E+01    0.352E+00
RMM:   7    -0.146692814307E+02    0.12489E+00   -0.17984E-01    18   0.314E+00    0.195E+00
RMM:   8    -0.146369824576E+02    0.32299E-01   -0.13248E-01    18   0.252E+00    0.353E-01
RMM:   9    -0.146363927141E+02    0.58974E-03   -0.51691E-03    18   0.571E-01    0.155E-01
RMM:  10    -0.146369784694E+02   -0.58576E-03   -0.15112E-03    18   0.344E-01    0.354E-02
RMM:  11    -0.146385171716E+02   -0.15387E-02   -0.71707E-04    17   0.163E-01    0.391E-02
RMM:  12    -0.146390389004E+02   -0.52173E-03   -0.18934E-04    14   0.993E-02    0.125E-02
RMM:  13    -0.146400424309E+02   -0.10035E-02   -0.15368E-04    14   0.676E-02    0.150E-02
RMM:  14    -0.146400946710E+02   -0.52240E-04   -0.21643E-05    12   0.314E-02
   1 F= -.14640095E+02 E0= -.14640095E+02  d E =-.146401E+02
 BRION: g(F)=  0.267E+01 g(S)=  0.000E+00
 bond charge predicted
       N       E                     dE             d eps       ncg     rms          rms(c)
DAV:   1     0.227905938358E+02    0.37431E+02   -0.76592E+02    18   0.294E+02    0.257E+01
RMM:   2     0.243673466366E+02    0.15768E+01   -0.25160E+01    18   0.541E+01    0.314E+01
RMM:   3     0.214809441214E+02   -0.28864E+01   -0.38080E+00    18   0.180E+01    0.492E+01
RMM:   4     0.261151537327E+02    0.46342E+01   -0.15585E+01    18   0.336E+01    0.690E+00
RMM:   5     0.261262176428E+02    0.11064E-01   -0.25129E-01    18   0.387E+00    0.366E+00
RMM:   6     0.261218257576E+02   -0.43919E-02   -0.21385E-02    19   0.109E+00    0.199E+00
RMM:   7     0.261171327668E+02   -0.46930E-02   -0.86305E-03    18   0.918E-01    0.268E-01
RMM:   8     0.261170034845E+02   -0.12928E-03   -0.15181E-03    18   0.300E-01    0.539E-02
RMM:   9     0.261133464210E+02   -0.36571E-02   -0.43621E-03    18   0.425E-01    0.263E-01
RMM:  10     0.261120824977E+02   -0.12639E-02   -0.17681E-03    18   0.308E-01    0.102E-01
RMM:  11     0.261103407686E+02   -0.17417E-02   -0.51036E-04    15   0.156E-01    0.221E-02
RMM:  12     0.261100182184E+02   -0.32255E-03   -0.11172E-04    13   0.800E-02    0.174E-02
RMM:  13     0.261098539646E+02   -0.16425E-03   -0.18859E-05    12   0.305E-02    0.144E-02
RMM:  14     0.261096932765E+02   -0.16069E-03   -0.19485E-05    12   0.263E-02    0.521E-03
RMM:  15     0.261096639435E+02   -0.29333E-04   -0.80724E-06    12   0.217E-02
   2 F= 0.26109664E+02 E0= 0.26109664E+02  d E =0.407498E+02
 BRION: g(F)=  0.944E+04 g(S)=  0.000E+00 retain N=  1 mean eig= 0.02
 eig:   0.017
 bond charge predicted
       N       E                     dE             d eps       ncg     rms          rms(c)
DAV:   1    -0.192695305755E+02   -0.45379E+02   -0.74419E+02    18   0.293E+02    0.366E+01
RMM:   2    -0.156534901170E+02    0.36160E+01   -0.19204E+01    18   0.400E+01    0.214E+01
RMM:   3    -0.147200833161E+02    0.93341E+00   -0.67570E+00    18   0.186E+01    0.455E+00
RMM:   4    -0.147485040250E+02   -0.28421E-01   -0.37909E-01    20   0.427E+00    0.144E+00
RMM:   5    -0.148025696156E+02   -0.54066E-01   -0.14971E+00    18   0.738E+00    0.194E+00
RMM:   6    -0.146837322691E+02    0.11884E+00   -0.10864E-01    18   0.254E+00    0.656E-01
RMM:   7    -0.146772195726E+02    0.65127E-02   -0.38093E-02    18   0.137E+00    0.698E-02
RMM:   8    -0.146789170289E+02   -0.16975E-02   -0.21097E-03    18   0.385E-01    0.106E-01
RMM:   9    -0.146800565009E+02   -0.11395E-02   -0.77533E-04    16   0.171E-01    0.526E-02
RMM:  10    -0.146810984777E+02   -0.10420E-02   -0.14063E-03    18   0.265E-01    0.926E-02
RMM:  11    -0.146814370745E+02   -0.33860E-03   -0.10060E-03    18   0.239E-01    0.607E-02
RMM:  12    -0.146815796584E+02   -0.14258E-03   -0.11123E-04    13   0.922E-02    0.927E-03
RMM:  13    -0.146817289355E+02   -0.14928E-03   -0.53737E-05    13   0.592E-02    0.897E-03
RMM:  14    -0.146817918972E+02   -0.62962E-04   -0.11661E-05    13   0.319E-02
   3 F= -.14681792E+02 E0= -.14681792E+02  d E =-.407915E+02
 BRION: g(F)=  0.205E+01 g(S)=  0.000E+00 retain N=  1 mean eig= 0.02
 eig:   0.016
 bond charge predicted
       N       E                     dE             d eps       ncg     rms          rms(c)
DAV:   1    -0.147132023245E+02   -0.31473E-01   -0.13343E-01    20   0.383E+00    0.154E-01
RMM:   2    -0.147131784260E+02    0.23899E-04   -0.27944E-03    18   0.488E-01    0.739E-02
RMM:   3    -0.147130747662E+02    0.10366E-03   -0.31629E-04    16   0.143E-01    0.302E-02
RMM:   4    -0.147130658477E+02    0.89185E-05   -0.54976E-05    13   0.593E-02
 running on    1 total cores
 distrk:  each k-point on    1 cores,    1 groups
 distr:  one band on    1 cores,    1 groups
 using from now: INCAR     
 vasp.5.3.3 18Dez12 (build Sep  7 2015 22:32:56) complex                        
  
 POSCAR found :  2 types and       2 ions
 LDA part: xc-table for Pade appr. of Perdew
 POSCAR, INCAR and KPOINTS ok, starting setup
 WARNING: small aliasing (wrap around) errors must be expected
 FFT: planning ...
 WAVECAR not read
 WARNING: random wavefunctions but no delay for mixing, default for NELMDL
 entering main loop
       N       E                     dE             d eps       ncg     rms          rms(c)
DAV:   1     0.790394779508E+02    0.79039E+02   -0.19218E+03    18   0.462E+02
DAV:   2     0.172341353742E+01   -0.77316E+02   -0.77084E+02    34   0.118E+02
DAV:   3    -0.150623054843E+02   -0.16786E+02   -0.16781E+02    35   0.747E+01
DAV:   4    -0.152967376369E+02   -0.23443E+00   -0.23443E+00    20   0.892E+00
DAV:   5    -0.152985691982E+02   -0.18316E-02   -0.18316E-02    27   0.883E-01    0.636E+00
RMM:   6    -0.147941757677E+02    0.50439E+00   -0.16233E+00    21   0.103E+01    0.352E+00
RMM:   7    -0.146692833435E+02    0.12489E+00   -0.17842E-01    22   0.314E+00    0.195E+00
RMM:   8    -0.146369710972E+02    0.32312E-01   -0.13226E-01    23   0.251E+00    0.353E-01
RMM:   9    -0.146363869809E+02    0.58412E-03   -0.51582E-03    21   0.570E-01    0.154E-01
RMM:  10    -0.146369796204E+02   -0.59264E-03   -0.15121E-03    22   0.343E-01    0.354E-02
RMM:  11    -0.146385142797E+02   -0.15347E-02   -0.71811E-04    18   0.163E-01    0.395E-02
RMM:  12    -0.146390384599E+02   -0.52418E-03   -0.19074E-04    17   0.992E-02    0.125E-02
RMM:  13    -0.146400429940E+02   -0.10045E-02   -0.15404E-04    18   0.678E-02    0.151E-02
RMM:  14    -0.146400954242E+02   -0.52430E-04   -0.21785E-05    15   0.314E-02
   1 F= -.14640095E+02 E0= -.14640095E+02  d E =-.948091E-12
 running on    1 total cores
 distrk:  each k-point on    1 cores,    1 groups
 distr:  one band on    1 cores,    1 groups
 using from now: INCAR     
 vasp.5.3.3 18Dez12 (build Sep  7 2015 22:32:56) complex                        
  
 POSCAR found :  2 types and       2 ions
 LDA part: xc-table for Pade appr. of Perdew
 POSCAR, INCAR and KPOINTS ok, starting setup
 WARNING: small aliasing (wrap around) errors must be expected
 FFT: planning ...
 WAVECAR not read
 WARNING: random wavefunctions but no delay for mixing, default for NELMDL
 entering main loop
       N       E                     dE             d eps       ncg     rms          rms(c)
DAV:   1     0.732576035592E+02    0.73258E+02   -0.18530E+03    18   0.461E+02
DAV:   2     0.201439794951E+01   -0.71243E+02   -0.71040E+02    34   0.112E+02
DAV:   3    -0.129601200107E+02   -0.14975E+02   -0.14974E+02    27   0.692E+01
DAV:   4    -0.133655133770E+02   -0.40539E+00   -0.40539E+00    28   0.110E+01
DAV:   5    -0.133661484555E+02   -0.63508E-03   -0.63507E-03    28   0.496E-01    0.618E+00
RMM:   6    -0.131345665299E+02    0.23158E+00   -0.35373E+00    20   0.128E+01    0.575E+00
RMM:   7    -0.127004682088E+02    0.43410E+00   -0.56849E-01    22   0.587E+00    0.186E+00
RMM:   8    -0.126702765818E+02    0.30192E-01   -0.72242E-02    21   0.203E+00    0.143E-01
RMM:   9    -0.126714632711E+02   -0.11867E-02   -0.55256E-03    25   0.439E-01    0.124E-01
RMM:  10    -0.126738892951E+02   -0.24260E-02   -0.48467E-03    18   0.411E-01    0.191E-01
RMM:  11    -0.126735905250E+02    0.29877E-03   -0.26752E-04    18   0.135E-01    0.839E-02
RMM:  12    -0.126755757817E+02   -0.19853E-02   -0.19341E-03    20   0.275E-01    0.776E-02
RMM:  13    -0.126756854726E+02   -0.10969E-03   -0.76158E-05    16   0.705E-02    0.306E-02
RMM:  14    -0.126764414289E+02   -0.75596E-03   -0.20099E-04    18   0.847E-02    0.132E-02
RMM:  15    -0.126765430539E+02   -0.10162E-03   -0.16016E-05    14   0.302E-02    0.366E-03
RMM:  16    -0.126767237706E+02   -0.18072E-03   -0.13266E-05     9   0.215E-02    0.353E-03
RMM:  17    -0.126767485965E+02   -0.24826E-04   -0.25411E-06    10   0.169E-02
   1 F= -.12676749E+02 E0= -.12676749E+02  d E =-.531592E-11
 running on    1 total cores
 distrk:  each k-point on    1 cores,    1 groups
 distr:  one band on    1 cores,    1 groups
 using from now: INCAR     
 vasp.5.3.3 18Dez12 (build Sep  7 2015 22:32:56) complex                        
  
 POSCAR found :  2 types and       2 ions
 LDA part: xc-table for Pade appr. of Perdew
 POSCAR, INCAR and KPOINTS ok, starting setup
 WARNING: small aliasing (wrap around) errors must be expected
 FFT: planning ...
 WAVECAR not read
 WARNING: random wavefunctions but no delay for mixing, default for NELMDL
 entering main loop
       N       E                     dE             d eps       ncg     rms          rms(c)
DAV:   1     0.462435199459E+02    0.46244E+02   -0.20578E+03    26   0.460E+02
DAV:   2    -0.560332787468E+01   -0.51847E+02   -0.51754E+02    35   0.124E+02
DAV:   3    -0.113494042952E+02   -0.57461E+01   -0.57458E+01    28   0.473E+01
DAV:   4    -0.113838818472E+02   -0.34478E-01   -0.34419E-01    20   0.372E+00
DAV:   5    -0.113845239091E+02   -0.64206E-03   -0.64205E-03    35   0.467E-01    0.755E+00
RMM:   6    -0.123896216036E+02   -0.10051E+01   -0.55915E+00    20   0.140E+01    0.141E+01
RMM:   7    -0.102737430557E+02    0.21159E+01   -0.21708E+00    19   0.104E+01    0.230E+00
RMM:   8    -0.102000942522E+02    0.73649E-01   -0.42319E-02    22   0.187E+00    0.682E-01
RMM:   9    -0.101964299542E+02    0.36643E-02   -0.98270E-03    22   0.102E+00    0.365E-01
RMM:  10    -0.101990158581E+02   -0.25859E-02   -0.84631E-03    20   0.624E-01    0.305E-01
RMM:  11    -0.101989050359E+02    0.11082E-03   -0.13526E-03    20   0.262E-01    0.421E-02
RMM:  12    -0.102019360041E+02   -0.30310E-02   -0.11000E-03    18   0.241E-01    0.143E-01
RMM:  13    -0.102027763497E+02   -0.84035E-03   -0.10288E-03    21   0.187E-01    0.957E-02
RMM:  14    -0.102038632121E+02   -0.10869E-02   -0.32158E-04    20   0.114E-01    0.168E-02
RMM:  15    -0.102040671946E+02   -0.20398E-03   -0.29396E-05    15   0.389E-02    0.207E-02
RMM:  16    -0.102042994934E+02   -0.23230E-03   -0.20922E-05    14   0.305E-02    0.621E-03
RMM:  17    -0.102043646449E+02   -0.65151E-04   -0.57185E-06    13   0.187E-02
   1 F= -.10204365E+02 E0= -.10204365E+02  d E =-.374987E-10
 running on    1 total cores
 distrk:  each k-point on    1 cores,    1 groups
 distr:  one band on    1 cores,    1 groups
 using from now: INCAR     
 vasp.5.3.3 18Dez12 (build Sep  7 2015 22:32:56) complex                        
  
 POSCAR found :  2 types and       2 ions
 LDA part: xc-table for Pade appr. of Perdew
 POSCAR, INCAR and KPOINTS ok, starting setup
 WARNING: small aliasing (wrap around) errors must be expected
 FFT: planning ...
 WAVECAR not read
 WARNING: random wavefunctions but no delay for mixing, default for NELMDL
 entering main loop
       N       E                     dE             d eps       ncg     rms          rms(c)
DAV:   1     0.486415516195E+02    0.48642E+02   -0.20004E+03    26   0.459E+02
DAV:   2    -0.330640801528E+01   -0.51948E+02   -0.51406E+02    35   0.117E+02
DAV:   3    -0.986787587526E+01   -0.65615E+01   -0.65612E+01    28   0.501E+01
DAV:   4    -0.992001238892E+01   -0.52137E-01   -0.52136E-01    18   0.441E+00
DAV:   5    -0.992104401269E+01   -0.10316E-02   -0.10316E-02    34   0.502E-01    0.926E+00
RMM:   6    -0.150787202705E+02   -0.51577E+01   -0.70551E+00    20   0.152E+01    0.254E+01
RMM:   7    -0.822886741839E+01    0.68499E+01   -0.41439E+00    20   0.145E+01    0.346E+00
RMM:   8    -0.814014480597E+01    0.88723E-01   -0.64425E-02    20   0.195E+00    0.263E+00
RMM:   9    -0.810104463330E+01    0.39100E-01   -0.12329E-01    20   0.226E+00    0.348E+00
RMM:  10    -0.800514734753E+01    0.95897E-01   -0.10488E-01    19   0.237E+00    0.789E-01
RMM:  11    -0.802134757947E+01   -0.16200E-01   -0.92378E-03    20   0.680E-01    0.136E+00
RMM:  12    -0.800289483410E+01    0.18453E-01   -0.17161E-02    19   0.953E-01    0.144E-01
RMM:  13    -0.800575887688E+01   -0.28640E-02   -0.17464E-03    21   0.239E-01    0.240E-01
RMM:  14    -0.800909352741E+01   -0.33347E-02   -0.22168E-03    20   0.337E-01    0.265E-01
RMM:  15    -0.800903053452E+01    0.62993E-04   -0.41624E-04    18   0.142E-01
   1 F= -.80090305E+01 E0= -.80090305E+01  d E =-.258169E-11
 running on    1 total cores
 distrk:  each k-point on    1 cores,    1 groups
 distr:  one band on    1 cores,    1 groups
 using from now: INCAR     
 vasp.5.3.3 18Dez12 (build Sep  7 2015 22:32:56) complex                        
  
 POSCAR found :  2 types and       2 ions
 LDA part: xc-table for Pade appr. of Perdew
 POSCAR, INCAR and KPOINTS ok, starting setup
 WARNING: small aliasing (wrap around) errors must be expected
 FFT: planning ...
 WAVECAR not read
 WARNING: random wavefunctions but no delay for mixing, default for NELMDL
 entering main loop
       N       E                     dE             d eps       ncg     rms          rms(c)
DAV:   1     0.510803777818E+02    0.51080E+02   -0.19585E+03    26   0.459E+02
DAV:   2    -0.125183632660E+01   -0.52332E+02   -0.51839E+02    35   0.109E+02
DAV:   3    -0.888143462170E+01   -0.76296E+01   -0.76291E+01    27   0.540E+01
DAV:   4    -0.895879437297E+01   -0.77360E-01   -0.77359E-01    26   0.518E+00
DAV:   5    -0.895901317966E+01   -0.21881E-03   -0.21881E-03    26   0.279E-01    0.108E+01
RMM:   6    -0.202893799954E+02   -0.11330E+02   -0.10305E+01    20   0.178E+01    0.315E+01
RMM:   7    -0.651471696675E+01    0.13775E+02   -0.59724E+00    20   0.173E+01    0.391E+00
RMM:   8    -0.654561875914E+01   -0.30902E-01   -0.12321E-01    22   0.225E+00    0.419E+00
RMM:   9    -0.771487448980E+01   -0.11693E+01   -0.54469E-01    20   0.444E+00    0.160E+01
RMM:  10    -0.665671326237E+01    0.10582E+01   -0.55777E-02    19   0.200E+00    0.931E+00
RMM:  11    -0.631882068876E+01    0.33789E+00   -0.10761E-01    18   0.235E+00    0.486E+00
RMM:  12    -0.623621616059E+01    0.82605E-01   -0.65019E-02    19   0.184E+00    0.254E+00
RMM:  13    -0.621720236366E+01    0.19014E-01   -0.17727E-02    19   0.907E-01    0.111E+00
RMM:  14    -0.621476055227E+01    0.24418E-02   -0.19972E-02    19   0.103E+00    0.171E-01
RMM:  15    -0.621822522564E+01   -0.34647E-02   -0.46437E-03    19   0.513E-01    0.120E-01
RMM:  16    -0.622053289165E+01   -0.23077E-02   -0.17685E-03    19   0.293E-01    0.261E-01
RMM:  17    -0.622270633176E+01   -0.21734E-02   -0.63735E-04    19   0.219E-01    0.476E-01
RMM:  18    -0.622144642189E+01    0.12599E-02   -0.13958E-03    19   0.270E-01    0.148E-01
RMM:  19    -0.622174282289E+01   -0.29640E-03   -0.32642E-04    17   0.111E-01    0.751E-02
RMM:  20    -0.622192561686E+01   -0.18279E-03   -0.36709E-05    11   0.539E-02    0.840E-02
RMM:  21    -0.622197638173E+01   -0.50765E-04   -0.40735E-05    11   0.521E-02
   1 F= -.62219764E+01 E0= -.62219764E+01  d E =-.590350E-08
 running on    1 total cores
 distrk:  each k-point on    1 cores,    1 groups
 distr:  one band on    1 cores,    1 groups
 using from now: INCAR     
 vasp.5.3.3 18Dez12 (build Sep  7 2015 22:32:56) complex                        
  
 POSCAR found :  2 types and       2 ions
 LDA part: xc-table for Pade appr. of Perdew
 POSCAR, INCAR and KPOINTS ok, starting setup
 WARNING: small aliasing (wrap around) errors must be expected
 FFT: planning ...
 WAVECAR not read
 WARNING: random wavefunctions but no delay for mixing, default for NELMDL
 entering main loop
       N       E                     dE             d eps       ncg     rms          rms(c)
DAV:   1     0.525284675749E+02    0.52528E+02   -0.19348E+03    26   0.459E+02
DAV:   2     0.125493845300E+01   -0.51274E+02   -0.51162E+02    35   0.989E+01
DAV:   3    -0.823394087042E+01   -0.94889E+01   -0.94865E+01    27   0.589E+01
DAV:   4    -0.835614727843E+01   -0.12221E+00   -0.12220E+00    26   0.689E+00
DAV:   5    -0.835647848917E+01   -0.33121E-03   -0.33121E-03    26   0.386E-01    0.120E+01
RMM:   6    -0.256317744879E+02   -0.17275E+02   -0.13488E+01    20   0.201E+01    0.345E+01
RMM:   7    -0.509753242086E+01    0.20534E+02   -0.74933E+00    19   0.194E+01    0.396E+00
RMM:   8    -0.515899210290E+01   -0.61460E-01   -0.16386E-01    22   0.249E+00    0.454E+00
RMM:   9    -0.551755097502E+01   -0.35856E+00   -0.20868E-01    19   0.309E+00    0.126E+01
RMM:  10    -0.564778514898E+01   -0.13023E+00   -0.17184E-02    23   0.986E-01    0.140E+01
RMM:  11    -0.488929988520E+01    0.75849E+00   -0.18508E-01    19   0.311E+00    0.381E+00
RMM:  12    -0.493448699113E+01   -0.45187E-01   -0.71975E-03    19   0.692E-01    0.435E+00
RMM:  13    -0.505377002170E+01   -0.11928E+00   -0.13533E-02    18   0.757E-01    0.746E+00
RMM:  14    -0.503545270089E+01    0.18317E-01   -0.27342E-03    20   0.404E-01    0.742E+00
RMM:  15    -0.479745440805E+01    0.23800E+00   -0.15705E-01    19   0.285E+00    0.143E+00
RMM:  16    -0.480932525076E+01   -0.11871E-01   -0.11908E-02    20   0.739E-01    0.962E-01
RMM:  17    -0.481179384385E+01   -0.24686E-02   -0.13186E-02    19   0.836E-01    0.117E+00
RMM:  18    -0.481200728875E+01   -0.21344E-03   -0.11873E-03    21   0.223E-01    0.121E+00
RMM:  19    -0.480756411655E+01    0.44432E-02   -0.12203E-02    19   0.766E-01    0.439E-01
RMM:  20    -0.480863465401E+01   -0.10705E-02   -0.27341E-04    15   0.179E-01    0.256E-01
RMM:  21    -0.480892315080E+01   -0.28850E-03   -0.28794E-04    16   0.142E-01    0.341E-01
RMM:  22    -0.480900323765E+01   -0.80087E-04   -0.83904E-05    11   0.772E-02
   1 F= -.48090032E+01 E0= -.48089492E+01  d E =-.108142E-03
 running on    1 total cores
 distrk:  each k-point on    1 cores,    1 groups
 distr:  one band on    1 cores,    1 groups
 using from now: INCAR     
 vasp.5.3.3 18Dez12 (build Sep  7 2015 22:32:56) complex                        
  
 POSCAR found :  2 types and       2 ions
 LDA part: xc-table for Pade appr. of Perdew
 POSCAR, INCAR and KPOINTS ok, starting setup
 WARNING: small aliasing (wrap around) errors must be expected
 FFT: planning ...
 WAVECAR not read
 WARNING: random wavefunctions but no delay for mixing, default for NELMDL
 entering main loop
       N       E                     dE             d eps       ncg     rms          rms(c)
DAV:   1     0.529457225749E+02    0.52946E+02   -0.19253E+03    26   0.459E+02
DAV:   2     0.295209198489E+01   -0.49994E+02   -0.49866E+02    35   0.932E+01
DAV:   3    -0.785573991421E+01   -0.10808E+02   -0.10808E+02    28   0.612E+01
DAV:   4    -0.799517658529E+01   -0.13944E+00   -0.13944E+00    18   0.755E+00
DAV:   5    -0.799781477245E+01   -0.26382E-02   -0.26382E-02    26   0.889E-01    0.129E+01
RMM:   6    -0.299764052277E+02   -0.21979E+02   -0.16107E+01    20   0.218E+01    0.359E+01
RMM:   7    -0.398194214046E+01    0.25994E+02   -0.84921E+00    19   0.206E+01    0.385E+00
RMM:   8    -0.402154277794E+01   -0.39601E-01   -0.19348E-01    22   0.268E+00    0.439E+00
RMM:   9    -0.512646052132E+01   -0.11049E+01   -0.16957E-01    20   0.260E+00    0.201E+01
RMM:  10    -0.489116749269E+01    0.23529E+00   -0.25915E-02    19   0.146E+00    0.192E+01
RMM:  11    -0.371439616208E+01    0.11768E+01   -0.34942E-01    19   0.420E+00    0.437E+00
RMM:  12    -0.373738062541E+01   -0.22984E-01   -0.33545E-02    19   0.122E+00    0.155E+00
RMM:  13    -0.373798151725E+01   -0.60089E-03   -0.15609E-02    19   0.925E-01    0.156E+00
RMM:  14    -0.388852115212E+01   -0.15054E+00   -0.12122E-02    19   0.669E-01    0.784E+00
RMM:  15    -0.383785085019E+01    0.50670E-01   -0.20506E-03    19   0.464E-01    0.718E+00
RMM:  16    -0.369442169658E+01    0.14343E+00   -0.74787E-02    19   0.192E+00    0.348E-01
RMM:  17    -0.372172108097E+01   -0.27299E-01   -0.19616E-03    19   0.462E-01    0.243E-01
RMM:  18    -0.374636702365E+01   -0.24646E-01   -0.98163E-03    19   0.699E-01    0.221E+00
RMM:  19    -0.373389493300E+01    0.12472E-01   -0.19329E-03    19   0.387E-01    0.155E+00
RMM:  20    -0.372944825911E+01    0.44467E-02   -0.48111E-04    17   0.128E-01    0.101E+00
RMM:  21    -0.372768145774E+01    0.17668E-02   -0.13693E-03    18   0.242E-01    0.301E-01
RMM:  22    -0.372896599192E+01   -0.12845E-02   -0.45345E-04    17   0.138E-01    0.235E-01
RMM:  23    -0.372938431360E+01   -0.41832E-03   -0.70235E-05    11   0.909E-02    0.203E-01
RMM:  24    -0.372937511541E+01    0.91982E-05   -0.83606E-05    11   0.689E-02
   1 F= -.37293751E+01 E0= -.37237247E+01  d E =-.113009E-01
 running on    1 total cores
 distrk:  each k-point on    1 cores,    1 groups
 distr:  one band on    1 cores,    1 groups
 using from now: INCAR     
 vasp.5.3.3 18Dez12 (build Sep  7 2015 22:32:56) complex                        
  
 POSCAR found :  2 types and       2 ions
 LDA part: xc-table for Pade appr. of Perdew
 POSCAR, INCAR and KPOINTS ok, starting setup
 WARNING: small aliasing (wrap around) errors must be expected
 FFT: planning ...
 WAVECAR not read
 WARNING: random wavefunctions but no delay for mixing, default for NELMDL
 entering main loop
       N       E                     dE             d eps       ncg     rms          rms(c)
DAV:   1     0.529896463925E+02    0.52990E+02   -0.19216E+03    26   0.459E+02
DAV:   2     0.420374039837E+01   -0.48786E+02   -0.48683E+02    35   0.911E+01
DAV:   3    -0.761440893689E+01   -0.11818E+02   -0.11818E+02    28   0.635E+01
DAV:   4    -0.778152982447E+01   -0.16712E+00   -0.16712E+00    18   0.819E+00
DAV:   5    -0.778470614050E+01   -0.31763E-02   -0.31763E-02    26   0.958E-01    0.135E+01
RMM:   6    -0.331487393415E+02   -0.25364E+02   -0.17916E+01    20   0.228E+01    0.366E+01
RMM:   7    -0.311356039982E+01    0.30035E+02   -0.90862E+00    19   0.213E+01    0.370E+00
RMM:   8    -0.313282806767E+01   -0.19268E-01   -0.21920E-01    22   0.282E+00    0.407E+00
RMM:   9    -0.800459316765E+01   -0.48718E+01   -0.53690E-01    20   0.401E+00    0.289E+01
RMM:  10    -0.331858481840E+01    0.46860E+01   -0.24295E-01    20   0.361E+00    0.147E+01
RMM:  11    -0.308118463862E+01    0.23740E+00   -0.18565E-02    22   0.830E-01    0.939E+00
RMM:  12    -0.295982939169E+01    0.12136E+00   -0.29199E-02    19   0.121E+00    0.495E+00
RMM:  13    -0.304872551456E+01   -0.88896E-01   -0.24884E-02    19   0.126E+00    0.892E+00
RMM:  14    -0.298070272165E+01    0.68023E-01   -0.19043E-03    18   0.412E-01    0.765E+00
RMM:  15    -0.289152856368E+01    0.89174E-01   -0.61332E-03    19   0.504E-01    0.327E+00
RMM:  16    -0.292700306135E+01   -0.35474E-01   -0.94750E-04    18   0.362E-01    0.404E+00
RMM:  17    -0.297152788390E+01   -0.44525E-01   -0.18130E-03    18   0.351E-01    0.645E+00
RMM:  18    -0.295268303748E+01    0.18845E-01   -0.83557E-03    18   0.671E-01    0.629E+00
RMM:  19    -0.288509728706E+01    0.67586E-01   -0.71185E-02    19   0.185E+00    0.594E-01
RMM:  20    -0.291449431946E+01   -0.29397E-01   -0.57716E-03    19   0.619E-01    0.354E-01
RMM:  21    -0.294332232689E+01   -0.28828E-01   -0.53058E-03    19   0.488E-01    0.296E+00
RMM:  22    -0.292367677074E+01    0.19646E-01   -0.83077E-04    18   0.300E-01    0.210E+00
RMM:  23    -0.291619689183E+01    0.74799E-02   -0.80337E-04    18   0.186E-01    0.111E+00
RMM:  24    -0.291636978251E+01   -0.17289E-03   -0.45887E-04    17   0.155E-01    0.271E-01
RMM:  25    -0.291828559270E+01   -0.19158E-02   -0.90256E-05    11   0.110E-01    0.111E-01
RMM:  26    -0.291888954520E+01   -0.60395E-03   -0.79334E-05    11   0.655E-02    0.261E-01
RMM:  27    -0.291877266009E+01    0.11689E-03   -0.33708E-05    11   0.642E-02    0.569E-02
RMM:  28    -0.291882741025E+01   -0.54750E-04   -0.97811E-06    10   0.303E-02
   1 F= -.29188274E+01 E0= -.28803677E+01  d E =-.769195E-01
 running on    1 total cores
 distrk:  each k-point on    1 cores,    1 groups
 distr:  one band on    1 cores,    1 groups
 using from now: INCAR     
 vasp.5.3.3 18Dez12 (build Sep  7 2015 22:32:56) complex                        
  
 POSCAR found :  2 types and       2 ions
 LDA part: xc-table for Pade appr. of Perdew
 POSCAR, INCAR and KPOINTS ok, starting setup
 WARNING: small aliasing (wrap around) errors must be expected
 FFT: planning ...
 WAVECAR not read
 WARNING: random wavefunctions but no delay for mixing, default for NELMDL
 entering main loop
       N       E                     dE             d eps       ncg     rms          rms(c)
DAV:   1     0.964019374135E+02    0.96402E+02   -0.20004E+03    18   0.465E+02
DAV:   2     0.340053059730E+01   -0.93001E+02   -0.92772E+02    35   0.131E+02
DAV:   3    -0.142989645042E+02   -0.17699E+02   -0.17673E+02    20   0.860E+01
DAV:   4    -0.148210767303E+02   -0.52211E+00   -0.52203E+00    26   0.167E+01
DAV:   5    -0.148221068645E+02   -0.10301E-02   -0.10301E-02    28   0.727E-01    0.915E+00
RMM:   6    -0.134141787307E+02    0.14079E+01   -0.25317E+00    21   0.133E+01    0.462E+00
RMM:   7    -0.131242870897E+02    0.28989E+00   -0.87294E-01    23   0.666E+00    0.193E+00
RMM:   8    -0.131142644073E+02    0.10023E-01   -0.12695E-01    23   0.265E+00    0.725E-01
RMM:   9    -0.131122682939E+02    0.19961E-02   -0.13317E-02    22   0.949E-01    0.799E-02
RMM:  10    -0.131135726419E+02   -0.13043E-02   -0.67145E-04    25   0.187E-01    0.424E-02
RMM:  11    -0.131163869310E+02   -0.28143E-02   -0.10057E-03    15   0.146E-01    0.345E-02
RMM:  12    -0.131174529034E+02   -0.10660E-02   -0.29184E-04    19   0.115E-01    0.305E-02
RMM:  13    -0.131186536597E+02   -0.12008E-02   -0.35484E-04    19   0.907E-02    0.624E-03
RMM:  14    -0.131191257286E+02   -0.47207E-03   -0.53443E-05    18   0.462E-02    0.678E-03
RMM:  15    -0.131192878613E+02   -0.16213E-03   -0.24320E-05    16   0.238E-02    0.343E-03
RMM:  16    -0.131193380735E+02   -0.50212E-04   -0.37456E-06    16   0.156E-02
   1 F= -.13119338E+02 E0= -.13119338E+02  d E =-.341168E-10
 running on    1 total cores
 distrk:  each k-point on    1 cores,    1 groups
 distr:  one band on    1 cores,    1 groups
 using from now: INCAR     
 vasp.5.3.3 18Dez12 (build Sep  7 2015 22:32:56) complex                        
  
 POSCAR found :  2 types and       2 ions
 LDA part: xc-table for Pade appr. of Perdew

 ----------------------------------------------------------------------------- 
|                                                                             |
|           W    W    AA    RRRRR   N    N  II  N    N   GGGG   !!!           |
|           W    W   A  A   R    R  NN   N  II  NN   N  G    G  !!!           |
|           W    W  A    A  R    R  N N  N  II  N N  N  G       !!!           |
|           W WW W  AAAAAA  RRRRR   N  N N  II  N  N N  G  GGG   !            |
|           WW  WW  A    A  R   R   N   NN  II  N   NN  G    G                |
|           W    W  A    A  R    R  N    N  II  N    N   GGGG   !!!           |
|                                                                             |
|      The distance between some ions is very small                           |
|      please check the nearest neigbor list in the OUTCAR file               |
|          I HOPE YOU KNOW, WHAT YOU ARE  DOING                               |
|                                                                             |
 ----------------------------------------------------------------------------- 

 POSCAR, INCAR and KPOINTS ok, starting setup
 WARNING: small aliasing (wrap around) errors must be expected
 FFT: planning ...
 WAVECAR not read
 WARNING: random wavefunctions but no delay for mixing, default for NELMDL
 entering main loop
       N       E                     dE             d eps       ncg     rms          rms(c)
DAV:   1     0.140369718640E+03    0.14037E+03   -0.20710E+03    18   0.469E+02
DAV:   2     0.170453523096E+02   -0.12332E+03   -0.12309E+03    35   0.158E+02
DAV:   3    -0.290478562921E+01   -0.19950E+02   -0.19949E+02    18   0.944E+01
DAV:   4    -0.342456130773E+01   -0.51978E+00   -0.51977E+00    35   0.173E+01
DAV:   5    -0.342466055026E+01   -0.99243E-04   -0.99242E-04    28   0.258E-01    0.164E+01
RMM:   6     0.132214625763E+01    0.47468E+01   -0.77129E+00    23   0.242E+01    0.777E+00
RMM:   7     0.216815669511E+01    0.84601E+00   -0.41217E+00    25   0.160E+01    0.220E+00
RMM:   8     0.216929456216E+01    0.11379E-02   -0.12238E-01    25   0.292E+00    0.751E-01
RMM:   9     0.217013779046E+01    0.84323E-03   -0.10208E-02    25   0.868E-01    0.112E-01
RMM:  10     0.216616142324E+01   -0.39764E-02   -0.32428E-03    25   0.480E-01    0.972E-02
RMM:  11     0.216313971109E+01   -0.30217E-02   -0.20809E-03    24   0.350E-01    0.438E-02
RMM:  12     0.216125044461E+01   -0.18893E-02   -0.11175E-03    24   0.205E-01    0.304E-02
RMM:  13     0.215926170225E+01   -0.19887E-02   -0.51203E-04    21   0.120E-01    0.152E-02
RMM:  14     0.215859042224E+01   -0.67128E-03   -0.17871E-04    19   0.973E-02    0.194E-02
RMM:  15     0.215823904678E+01   -0.35138E-03   -0.44710E-05    19   0.449E-02    0.101E-02
RMM:  16     0.215815078749E+01   -0.88259E-04   -0.66859E-05    18   0.675E-02
   1 F= 0.21581508E+01 E0= 0.21581508E+01  d E =-.258058E-12
 running on    1 total cores
 distrk:  each k-point on    1 cores,    1 groups
 distr:  one band on    1 cores,    1 groups
 using from now: INCAR     
 vasp.5.3.3 18Dez12 (build Sep  7 2015 22:32:56) complex                        
  
 POSCAR found :  2 types and       2 ions
 LDA part: xc-table for Pade appr. of Perdew
 POSCAR, INCAR and KPOINTS ok, starting setup
 WARNING: small aliasing (wrap around) errors must be expected
 FFT: planning ...
 WAVECAR not read
 WARNING: random wavefunctions but no delay for mixing, default for NELMDL
 entering main loop
       N       E                     dE             d eps       ncg     rms          rms(c)
DAV:   1     0.528863747610E+02    0.52886E+02   -0.19205E+03    26   0.459E+02
DAV:   2     0.594398205466E+01   -0.46942E+02   -0.46823E+02    35   0.904E+01
DAV:   3    -0.713569712763E+01   -0.13080E+02   -0.13078E+02    20   0.637E+01
DAV:   4    -0.764534330441E+01   -0.50965E+00   -0.50963E+00    18   0.164E+01
DAV:   5    -0.765940815149E+01   -0.14065E-01   -0.14065E-01    26   0.204E+00    0.139E+01
RMM:   6    -0.353339615498E+02   -0.27675E+02   -0.19103E+01    20   0.234E+01    0.370E+01
RMM:   7    -0.246575436763E+01    0.32868E+02   -0.94993E+00    19   0.217E+01    0.342E+00
RMM:   8    -0.248105438548E+01   -0.15300E-01   -0.24460E-01    22   0.299E+00    0.338E+00
RMM:   9    -0.938353114417E+01   -0.69025E+01   -0.88343E-01    20   0.485E+00    0.309E+01
RMM:  10    -0.272694724564E+01    0.66566E+01   -0.14146E+00    20   0.770E+00    0.796E+00
RMM:  11    -0.279998257809E+01   -0.73035E-01   -0.15630E-01    19   0.261E+00    0.882E+00
RMM:  12    -0.280032559419E+01   -0.34302E-03   -0.27444E-02    20   0.107E+00    0.914E+00
RMM:  13    -0.233622906450E+01    0.46410E+00   -0.49825E-02    18   0.140E+00    0.288E+00
RMM:  14    -0.245297589144E+01   -0.11675E+00   -0.72773E-03    21   0.642E-01    0.874E+00
RMM:  15    -0.261426578137E+01   -0.16129E+00   -0.64514E-03    18   0.675E-01    0.140E+01
RMM:  16    -0.259098808681E+01    0.23278E-01   -0.11903E-03    20   0.455E-01    0.144E+01
RMM:  17    -0.250735254725E+01    0.83636E-01   -0.28399E-04    16   0.176E-01    0.131E+01
RMM:  18    -0.241483724653E+01    0.92515E-01   -0.19368E-03    18   0.305E-01    0.106E+01
RMM:  19    -0.229610010413E+01    0.11874E+00   -0.11463E-02    19   0.708E-01    0.523E+00
RMM:  20    -0.229198353151E+01    0.41166E-02   -0.13649E-02    19   0.828E-01    0.583E-01
RMM:  21    -0.232468020071E+01   -0.32697E-01   -0.26285E-03    19   0.516E-01    0.888E-01
RMM:  22    -0.234686033725E+01   -0.22180E-01   -0.71593E-03    19   0.524E-01    0.278E+00
RMM:  23    -0.232470933179E+01    0.22151E-01   -0.15141E-03    19   0.380E-01    0.166E-01
RMM:  24    -0.233086256875E+01   -0.61532E-02   -0.29663E-04    17   0.180E-01    0.652E-01
RMM:  25    -0.233096017572E+01   -0.97607E-04   -0.11998E-04    14   0.722E-02
   1 F= -.23309602E+01 E0= -.22372880E+01  d E =-.187344E+00
 running on    1 total cores
 distrk:  each k-point on    1 cores,    1 groups
 distr:  one band on    1 cores,    1 groups
 using from now: INCAR     
 vasp.5.3.3 18Dez12 (build Sep  7 2015 22:32:56) complex                        
  
 POSCAR found :  2 types and       2 ions
 LDA part: xc-table for Pade appr. of Perdew
 POSCAR, INCAR and KPOINTS ok, starting setup
 WARNING: small aliasing (wrap around) errors must be expected
 FFT: planning ...
 WAVECAR not read
 WARNING: random wavefunctions but no delay for mixing, default for NELMDL
 entering main loop
       N       E                     dE             d eps       ncg     rms          rms(c)
DAV:   1     0.527101055475E+02    0.52710E+02   -0.19211E+03    26   0.459E+02
DAV:   2     0.679737169648E+01   -0.45913E+02   -0.45747E+02    35   0.898E+01
DAV:   3    -0.700787969512E+01   -0.13805E+02   -0.13804E+02    20   0.622E+01
DAV:   4    -0.757341516671E+01   -0.56554E+00   -0.56551E+00    18   0.166E+01
DAV:   5    -0.758773562499E+01   -0.14320E-01   -0.14320E-01    26   0.202E+00    0.141E+01
RMM:   6    -0.367729762670E+02   -0.29185E+02   -0.19732E+01    20   0.237E+01    0.372E+01
RMM:   7    -0.200702093843E+01    0.34766E+02   -0.97924E+00    19   0.221E+01    0.309E+00
RMM:   8    -0.203563547579E+01   -0.28615E-01   -0.27578E-01    22   0.312E+00    0.257E+00
RMM:   9    -0.537309243063E+01   -0.33375E+01   -0.33076E-01    20   0.288E+00    0.293E+01
RMM:  10    -0.453517787166E+01    0.83791E+00   -0.19196E+00    19   0.865E+00    0.124E+01
RMM:  11    -0.603939414938E+01   -0.15042E+01   -0.40304E-01    23   0.388E+00    0.138E+01
RMM:  12    -0.550439382027E+01    0.53500E+00   -0.12251E-02    20   0.831E-01    0.136E+01
RMM:  13    -0.389320140390E+01    0.16112E+01   -0.17095E-01    19   0.258E+00    0.122E+01
RMM:  14    -0.319456009795E+01    0.69864E+00   -0.36300E-02    19   0.101E+00    0.114E+01
RMM:  15    -0.377959803438E+01   -0.58504E+00   -0.86364E-03    19   0.637E-01    0.120E+01
RMM:  16    -0.409133712288E+01   -0.31174E+00   -0.39058E-03    20   0.377E-01    0.123E+01
RMM:  17    -0.499156018067E+01   -0.90022E+00   -0.23442E-02    19   0.900E-01    0.129E+01
RMM:  18    -0.481365788982E+01    0.17790E+00   -0.44563E-04    19   0.162E-01    0.128E+01
RMM:  19    -0.393267308108E+01    0.88098E+00   -0.17696E-02    19   0.741E-01    0.122E+01
RMM:  20    -0.326491585074E+01    0.66776E+00   -0.10412E+00    20   0.486E+00    0.241E+01
RMM:  21    -0.124030154882E+02   -0.91381E+01   -0.32632E+00    20   0.102E+01    0.155E+01
RMM:  22    -0.416340657286E+01    0.82396E+01   -0.10009E+00    19   0.590E+00    0.127E+01
RMM:  23    -0.260570825356E+01    0.15577E+01   -0.15566E-01    20   0.209E+00    0.105E+01
RMM:  24    -0.209518623114E+01    0.51052E+00   -0.21093E-01    19   0.224E+00    0.112E+01
RMM:  25    -0.439174438273E+01   -0.22966E+01   -0.31959E-01    19   0.319E+00    0.125E+01
RMM:  26    -0.255441828001E+01    0.18373E+01   -0.59116E-02    19   0.152E+00    0.103E+01
RMM:  27    -0.189770675194E+01    0.65671E+00   -0.59071E-02    20   0.138E+00    0.775E-01
RMM:  28    -0.225897645156E+01   -0.36127E+00   -0.99106E-03    20   0.683E-01    0.901E+00
RMM:  29    -0.190554765165E+01    0.35343E+00   -0.99618E-03    20   0.681E-01    0.190E+00
RMM:  30    -0.193045424075E+01   -0.24907E-01   -0.60455E-04    19   0.266E-01    0.261E+00
RMM:  31    -0.192048940215E+01    0.99648E-02   -0.76489E-04    19   0.185E-01    0.109E+00
RMM:  32    -0.192428024815E+01   -0.37908E-02   -0.57674E-04    18   0.219E-01    0.690E-01
RMM:  33    -0.192435211293E+01   -0.71865E-04   -0.19726E-04    13   0.205E-01
   1 F= -.19243521E+01 E0= -.17897338E+01  d E =-.269237E+00
 running on    1 total cores
 distrk:  each k-point on    1 cores,    1 groups
 distr:  one band on    1 cores,    1 groups
 using from now: INCAR     
 vasp.5.3.3 18Dez12 (build Sep  7 2015 22:32:56) complex                        
  
 POSCAR found :  2 types and       2 ions
 LDA part: xc-table for Pade appr. of Perdew
 POSCAR, INCAR and KPOINTS ok, starting setup
 WARNING: small aliasing (wrap around) errors must be expected
 FFT: planning ...
 WAVECAR not read
 WARNING: random wavefunctions but no delay for mixing, default for NELMDL
 entering main loop
       N       E                     dE             d eps       ncg     rms          rms(c)
DAV:   1     0.525007905250E+02    0.52501E+02   -0.19225E+03    26   0.459E+02
DAV:   2     0.726993907686E+01   -0.45231E+02   -0.45040E+02    35   0.891E+01
DAV:   3    -0.696688393795E+01   -0.14237E+02   -0.14236E+02    20   0.599E+01
DAV:   4    -0.753171397046E+01   -0.56483E+00   -0.56480E+00    18   0.165E+01
DAV:   5    -0.754576589378E+01   -0.14052E-01   -0.14052E-01    26   0.205E+00    0.143E+01
RMM:   6    -0.377205446845E+02   -0.30175E+02   -0.20031E+01    20   0.239E+01    0.372E+01
RMM:   7    -0.167451205316E+01    0.36046E+02   -0.10022E+01    19   0.223E+01    0.313E+00
RMM:   8    -0.172656226672E+01   -0.52050E-01   -0.32245E-01    22   0.332E+00    0.228E+00
RMM:   9    -0.668479185173E+01   -0.49582E+01   -0.43996E-01    20   0.332E+00    0.310E+01
RMM:  10    -0.527196830810E+01    0.14128E+01   -0.31438E+00    19   0.111E+01    0.133E+01
RMM:  11    -0.569992060574E+01   -0.42795E+00   -0.16936E-01    22   0.248E+00    0.139E+01
RMM:  12    -0.498203020618E+01    0.71789E+00   -0.14317E-02    19   0.884E-01    0.136E+01
RMM:  13    -0.372324226464E+01    0.12588E+01   -0.90219E-02    19   0.183E+00    0.127E+01
RMM:  14    -0.306056313645E+01    0.66268E+00   -0.29073E-02    22   0.904E-01    0.121E+01
RMM:  15    -0.392533691055E+01   -0.86477E+00   -0.12727E-02    19   0.615E-01    0.127E+01
RMM:  16    -0.706724018165E+01   -0.31419E+01   -0.22438E-01    19   0.259E+00    0.139E+01
RMM:  17    -0.735593769011E+01   -0.28870E+00   -0.13041E-02    25   0.584E-01    0.141E+01
RMM:  18    -0.754670047174E+01   -0.19076E+00   -0.55219E-03    23   0.481E-01    0.142E+01
RMM:  19    -0.619311978714E+01    0.13536E+01   -0.27310E-02    19   0.102E+00    0.141E+01
RMM:  20    -0.335134110474E+01    0.28418E+01   -0.19334E-01    19   0.235E+00    0.127E+01
RMM:  21    -0.230147447119E+01    0.10499E+01   -0.73280E-01    20   0.392E+00    0.202E+01
RMM:  22    -0.112836885174E+02   -0.89822E+01   -0.23018E+00    20   0.741E+00    0.146E+01
RMM:  23    -0.452720629291E+01    0.67565E+01   -0.53581E-01    19   0.369E+00    0.132E+01
RMM:  24    -0.263231395861E+01    0.18949E+01   -0.16413E-01    19   0.218E+00    0.115E+01
RMM:  25    -0.164419166140E+01    0.98812E+00   -0.14914E-01    22   0.190E+00    0.441E+00
RMM:  26    -0.242687866771E+01   -0.78269E+00   -0.49113E-02    19   0.124E+00    0.112E+01
RMM:  27    -0.210344530796E+01    0.32343E+00   -0.17011E-01    20   0.204E+00    0.179E+01
RMM:  28    -0.341845400427E+01   -0.13150E+01   -0.22157E-01    19   0.259E+00    0.125E+01
RMM:  29    -0.176890313993E+01    0.16496E+01   -0.21695E-01    19   0.259E+00    0.960E+00
RMM:  30    -0.213188354037E+01   -0.36298E+00   -0.27054E-02    19   0.103E+00    0.104E+01
RMM:  31    -0.166833451052E+01    0.46355E+00   -0.36351E-02    20   0.117E+00    0.571E+00
RMM:  32    -0.164267679748E+01    0.25658E-01   -0.27310E-03    19   0.514E-01    0.214E+00
RMM:  33    -0.166675354014E+01   -0.24077E-01   -0.50022E-03    19   0.490E-01    0.463E+00
RMM:  34    -0.165240195130E+01    0.14352E-01   -0.73987E-04    18   0.357E-01    0.365E+00
RMM:  35    -0.163309405098E+01    0.19308E-01   -0.35800E-04    15   0.106E-01    0.754E-01
RMM:  36    -0.163829788438E+01   -0.52038E-02   -0.17071E-04    13   0.179E-01    0.192E-01
RMM:  37    -0.165274896643E+01   -0.14451E-01   -0.45333E-04    17   0.156E-01    0.305E+00
RMM:  38    -0.163583865611E+01    0.16910E-01   -0.37392E-04    17   0.216E-01    0.634E-01
RMM:  39    -0.163871832075E+01   -0.28797E-02   -0.11684E-04    12   0.123E-01    0.391E-01
RMM:  40    -0.164044529066E+01   -0.17270E-02   -0.15506E-04    13   0.136E-01    0.106E+00
RMM:  41    -0.164100285059E+01   -0.55756E-03   -0.73471E-05    11   0.127E-01    0.127E+00
RMM:  42    -0.163874812765E+01    0.22547E-02   -0.13690E-04    13   0.777E-02    0.704E-01
RMM:  43    -0.163978364087E+01   -0.10355E-02   -0.16000E-04    12   0.172E-01    0.829E-01
RMM:  44    -0.163892585061E+01    0.85779E-03   -0.96839E-05    13   0.694E-02    0.681E-01
RMM:  45    -0.163888024609E+01    0.45605E-04   -0.10561E-04    12   0.145E-01
   1 F= -.16388802E+01 E0= -.14737112E+01  d E =-.330338E+00
 running on    1 total cores
 distrk:  each k-point on    1 cores,    1 groups
 distr:  one band on    1 cores,    1 groups
 using from now: INCAR     
 vasp.5.3.3 18Dez12 (build Sep  7 2015 22:32:56) complex                        
  
 POSCAR found :  2 types and       2 ions
 LDA part: xc-table for Pade appr. of Perdew
 POSCAR, INCAR and KPOINTS ok, starting setup
 WARNING: small aliasing (wrap around) errors must be expected
 FFT: planning ...
 WAVECAR not read
 WARNING: random wavefunctions but no delay for mixing, default for NELMDL
 entering main loop
       N       E                     dE             d eps       ncg     rms          rms(c)
DAV:   1     0.523052501009E+02    0.52305E+02   -0.19241E+03    26   0.459E+02
DAV:   2     0.757388061573E+01   -0.44731E+02   -0.44507E+02    35   0.889E+01
DAV:   3    -0.692795877253E+01   -0.14502E+02   -0.14500E+02    20   0.569E+01
DAV:   4    -0.750638937167E+01   -0.57843E+00   -0.57837E+00    18   0.159E+01
DAV:   5    -0.752035410425E+01   -0.13965E-01   -0.13965E-01    26   0.206E+00    0.143E+01
RMM:   6    -0.383523035223E+02   -0.30832E+02   -0.20133E+01    20   0.239E+01    0.373E+01
RMM:   7    -0.145121953859E+01    0.36901E+02   -0.10215E+01    19   0.225E+01    0.360E+00
RMM:   8    -0.152281332302E+01   -0.71594E-01   -0.38489E-01    22   0.358E+00    0.305E+00
RMM:   9    -0.233906304895E+01   -0.81625E+00   -0.38824E-02    20   0.115E+00    0.237E+01
RMM:  10    -0.531927875843E+01   -0.29802E+01   -0.17180E+00    19   0.801E+00    0.132E+01
RMM:  11    -0.858853964724E+01   -0.32693E+01   -0.60883E-01    20   0.455E+00    0.146E+01
RMM:  12    -0.823307674091E+01    0.35546E+00   -0.26571E-02    22   0.133E+00    0.143E+01
RMM:  13    -0.794803020115E+01    0.28505E+00   -0.49193E-02    22   0.158E+00    0.140E+01
RMM:  14    -0.860635949692E+01   -0.65833E+00   -0.66679E-03    19   0.540E-01    0.142E+01
RMM:  15    -0.795541129453E+01    0.65095E+00   -0.11683E-02    19   0.678E-01    0.139E+01
RMM:  16    -0.717655002001E+01    0.77886E+00   -0.98103E-03    19   0.606E-01    0.139E+01
RMM:  17    -0.678298313071E+01    0.39357E+00   -0.26692E-03    22   0.302E-01    0.138E+01
RMM:  18    -0.510176016508E+01    0.16812E+01   -0.66486E-02    19   0.136E+00    0.133E+01
RMM:  19    -0.671258401264E+01   -0.16108E+01   -0.45604E-02    18   0.121E+00    0.138E+01
RMM:  20    -0.736427461957E+01   -0.65169E+00   -0.14239E-02    21   0.615E-01    0.140E+01
RMM:  21    -0.424133449886E+01    0.31229E+01   -0.17109E-01    19   0.212E+00    0.131E+01
RMM:  22    -0.591396757009E+01   -0.16726E+01   -0.26165E+00    20   0.709E+00    0.304E+01
RMM:  23    -0.121275798274E+02   -0.62136E+01   -0.43888E+00    20   0.117E+01    0.156E+01
RMM:  24    -0.174238062921E+01    0.10385E+02   -0.20627E+00    19   0.844E+00    0.996E+00
RMM:  25    -0.289004350222E+01   -0.11477E+01   -0.61419E-01    24   0.360E+00    0.266E+01
RMM:  26    -0.115426826241E+02   -0.86526E+01   -0.31597E+00    20   0.945E+00    0.152E+01
RMM:  27    -0.269691602824E+01    0.88458E+01   -0.12357E+00    19   0.632E+00    0.123E+01
RMM:  28    -0.146525308596E+01    0.12317E+01   -0.25680E-01    24   0.249E+00    0.589E+00
RMM:  29    -0.481916680200E+01   -0.33539E+01   -0.50314E-01    19   0.371E+00    0.134E+01
RMM:  30    -0.269249113708E+01    0.21267E+01   -0.91748E-01    19   0.464E+00    0.260E+01
RMM:  31    -0.753640931827E+01   -0.48439E+01   -0.12848E+00    20   0.618E+00    0.143E+01
RMM:  32    -0.174758457800E+01    0.57888E+01   -0.61112E-01    19   0.452E+00    0.999E+00
RMM:  33    -0.148679228782E+01    0.26079E+00   -0.28172E-02    25   0.974E-01    0.610E+00
RMM:  34    -0.145633864372E+01    0.30454E-01   -0.24970E-03    22   0.265E-01    0.452E+00
RMM:  35    -0.148822841761E+01   -0.31890E-01   -0.60381E-04    15   0.187E-01    0.573E+00
RMM:  36    -0.154720284197E+01   -0.58974E-01   -0.15650E-02    20   0.613E-01    0.971E+00
RMM:  37    -0.177648163823E+01   -0.22928E+00   -0.29478E-02    19   0.113E+00    0.103E+01
RMM:  38    -0.222417391760E+01   -0.44769E+00   -0.93826E-02    19   0.164E+00    0.226E+01
RMM:  39    -0.361626093719E+01   -0.13921E+01   -0.32420E-01    19   0.323E+00    0.131E+01
RMM:  40    -0.261417495467E+01    0.10021E+01   -0.43586E-01    19   0.344E+00    0.256E+01
RMM:  41    -0.529562204694E+01   -0.26814E+01   -0.65504E-01    19   0.441E+00    0.136E+01
RMM:  42    -0.164523146307E+01    0.36504E+01   -0.25668E-01    19   0.298E+00    0.892E+00
RMM:  43    -0.174726903632E+01   -0.10204E+00   -0.54578E-03    22   0.645E-01    0.101E+01
RMM:  44    -0.145024884391E+01    0.29702E+00   -0.26004E-02    20   0.796E-01    0.552E+00
RMM:  45    -0.151640809632E+01   -0.66159E-01   -0.45200E-03    19   0.622E-01    0.632E+00
RMM:  46    -0.161896587000E+01   -0.10256E+00   -0.24184E-02    19   0.865E-01    0.122E+01
RMM:  47    -0.168744875414E+01   -0.68483E-01   -0.26454E-02    19   0.110E+00    0.966E+00
RMM:  48    -0.168991610503E+01   -0.24674E-02   -0.38844E-02    18   0.120E+00    0.142E+01
RMM:  49    -0.188399674476E+01   -0.19408E+00   -0.44154E-02    19   0.133E+00    0.109E+01
RMM:  50    -0.163301411548E+01    0.25098E+00   -0.47249E-02    18   0.132E+00    0.126E+01
RMM:  51    -0.192008169948E+01   -0.28707E+00   -0.40362E-02    19   0.122E+00    0.110E+01
RMM:  52    -0.158180388661E+01    0.33828E+00   -0.46162E-02    18   0.126E+00    0.110E+01
RMM:  53    -0.182523314456E+01   -0.24343E+00   -0.28734E-02    19   0.106E+00    0.106E+01
RMM:  54    -0.149732335682E+01    0.32791E+00   -0.24393E-02    18   0.102E+00    0.763E+00
RMM:  55    -0.151576502230E+01   -0.18442E-01   -0.59741E-03    19   0.630E-01    0.657E+00
RMM:  56    -0.148348710245E+01    0.32278E-01   -0.76372E-03    18   0.653E-01    0.661E+00
RMM:  57    -0.143284923646E+01    0.50638E-01   -0.23921E-03    18   0.529E-01    0.224E+00
RMM:  58    -0.143378733687E+01   -0.93810E-03   -0.98692E-04    18   0.423E-01    0.116E+00
RMM:  59    -0.146873911272E+01   -0.34952E-01   -0.10541E-03    19   0.252E-01    0.501E+00
RMM:  60    -0.147412777458E+01   -0.53887E-02   -0.43397E-03    19   0.380E-01
   1 F= -.14741278E+01 E0= -.13462648E+01  d E =-.255726E+00
 running on    1 total cores
 distrk:  each k-point on    1 cores,    1 groups
 distr:  one band on    1 cores,    1 groups
 using from now: INCAR     
 vasp.5.3.3 18Dez12 (build Sep  7 2015 22:32:56) complex                        
  
 POSCAR found :  2 types and       2 ions
 LDA part: xc-table for Pade appr. of Perdew
 POSCAR, INCAR and KPOINTS ok, starting setup
 WARNING: small aliasing (wrap around) errors must be expected
 FFT: planning ...
 WAVECAR not read
 WARNING: random wavefunctions but no delay for mixing, default for NELMDL
 entering main loop
       N       E                     dE             d eps       ncg     rms          rms(c)
DAV:   1     0.521795504884E+02    0.52180E+02   -0.19252E+03    26   0.459E+02
DAV:   2     0.773529872278E+01   -0.44444E+02   -0.44190E+02    35   0.888E+01
DAV:   3    -0.687579720708E+01   -0.14611E+02   -0.14609E+02    20   0.550E+01
DAV:   4    -0.749130685801E+01   -0.61551E+00   -0.61540E+00    18   0.158E+01
DAV:   5    -0.750554445963E+01   -0.14238E-01   -0.14238E-01    26   0.205E+00    0.144E+01
RMM:   6    -0.387756436632E+02   -0.31270E+02   -0.20115E+01    20   0.238E+01    0.373E+01
RMM:   7    -0.130313241998E+01    0.37473E+02   -0.10402E+01    19   0.226E+01    0.416E+00
RMM:   8    -0.141083434599E+01   -0.10770E+00   -0.44962E-01    22   0.382E+00    0.469E+00
RMM:   9    -0.434433870794E+01   -0.29335E+01   -0.69082E-01    19   0.462E+00    0.125E+01
RMM:  10    -0.576618584532E+01   -0.14218E+01   -0.14351E-01    22   0.202E+00    0.130E+01
RMM:  11    -0.109584707812E+02   -0.51923E+01   -0.41048E-01    20   0.373E+00    0.135E+01
RMM:  12    -0.237663288827E+01    0.85818E+01   -0.91070E+00    20   0.135E+01    0.233E+01
RMM:  13    -0.212273682225E+01    0.25390E+00   -0.86241E-02    19   0.222E+00    0.128E+01
RMM:  14    -0.148215274544E+01    0.64058E+00   -0.20185E-02    22   0.128E+00    0.936E+00
RMM:  15    -0.219633081379E+01   -0.71418E+00   -0.48453E-02    19   0.115E+00    0.243E+01
RMM:  16    -0.341299481298E+01   -0.12167E+01   -0.29764E-01    19   0.312E+00    0.133E+01
RMM:  17    -0.201236724623E+01    0.14006E+01   -0.10101E-01    19   0.219E+00    0.119E+01
RMM:  18    -0.167656416043E+01    0.33580E+00   -0.11432E-02    22   0.567E-01    0.108E+01
RMM:  19    -0.228441233947E+01   -0.60785E+00   -0.19860E-02    19   0.833E-01    0.124E+01
RMM:  20    -0.202969252553E+01    0.25472E+00   -0.70815E-04    16   0.167E-01    0.121E+01
RMM:  21    -0.166665687680E+01    0.36304E+00   -0.29327E-03    19   0.271E-01    0.110E+01
RMM:  22    -0.140752690922E+01    0.25913E+00   -0.31928E-03    19   0.286E-01    0.794E+00
RMM:  23    -0.170509441992E+01   -0.29757E+00   -0.64602E-02    20   0.117E+00    0.179E+01
RMM:  24    -0.195738804491E+01   -0.25229E+00   -0.12267E-02    20   0.965E-01    0.222E+01
RMM:  25    -0.132662245618E+01    0.63077E+00   -0.29176E-02    19   0.940E-01    0.736E+00
RMM:  26    -0.129572917524E+01    0.30893E-01   -0.90591E-03    19   0.105E+00    0.890E-01
RMM:  27    -0.166788681171E+01   -0.37216E+00   -0.15561E-02    19   0.631E-01    0.170E+01
RMM:  28    -0.129876119601E+01    0.36913E+00   -0.14689E-02    19   0.878E-01    0.494E+00
RMM:  29    -0.130250124207E+01   -0.37400E-02   -0.22901E-03    19   0.666E-01    0.229E+00
RMM:  30    -0.129767791837E+01    0.48233E-02   -0.75665E-05    11   0.766E-02    0.169E+00
RMM:  31    -0.129569760850E+01    0.19803E-02   -0.16565E-04    14   0.857E-02    0.108E+00
RMM:  32    -0.129890203513E+01   -0.32044E-02   -0.11058E-04    11   0.759E-02    0.161E+00
RMM:  33    -0.129992358342E+01   -0.10215E-02   -0.88991E-05    11   0.642E-02    0.188E+00
RMM:  34    -0.130254199827E+01   -0.26184E-02   -0.43890E-05    11   0.396E-02    0.233E+00
RMM:  35    -0.130253899062E+01    0.30077E-05   -0.18776E-05    11   0.359E-02
   1 F= -.13025390E+01 E0= -.11140728E+01  d E =-.376932E+00
 running on    1 total cores
 distrk:  each k-point on    1 cores,    1 groups
 distr:  one band on    1 cores,    1 groups
 using from now: INCAR     
 vasp.5.3.3 18Dez12 (build Sep  7 2015 22:32:56) complex                        
  
 POSCAR found :  2 types and       2 ions
 LDA part: xc-table for Pade appr. of Perdew
 POSCAR, INCAR and KPOINTS ok, starting setup
 WARNING: small aliasing (wrap around) errors must be expected
 FFT: planning ...
 WAVECAR not read
 WARNING: random wavefunctions but no delay for mixing, default for NELMDL
 entering main loop
       N       E                     dE             d eps       ncg     rms          rms(c)
DAV:   1     0.521529512779E+02    0.52153E+02   -0.19256E+03    26   0.459E+02
DAV:   2     0.792569415317E+01   -0.44227E+02   -0.43958E+02    35   0.887E+01
DAV:   3    -0.681422378817E+01   -0.14740E+02   -0.14738E+02    20   0.543E+01
DAV:   4    -0.748150439962E+01   -0.66728E+00   -0.66713E+00    18   0.161E+01
DAV:   5    -0.749636987758E+01   -0.14865E-01   -0.14865E-01    26   0.207E+00    0.144E+01
RMM:   6    -0.390677828786E+02   -0.31571E+02   -0.20054E+01    20   0.238E+01    0.373E+01
RMM:   7    -0.119571262805E+01    0.37872E+02   -0.10571E+01    19   0.228E+01    0.466E+00
RMM:   8    -0.135724142106E+01   -0.16153E+00   -0.51301E-01    22   0.403E+00    0.643E+00
RMM:   9    -0.542405220467E+01   -0.40668E+01   -0.11335E+00    19   0.604E+00    0.131E+01
RMM:  10    -0.142412555164E+02   -0.88172E+01   -0.21412E+00    20   0.821E+00    0.156E+01
RMM:  11    -0.182702965319E+02   -0.40290E+01   -0.33874E-01    22   0.288E+00    0.161E+01
RMM:  12    -0.790550257456E+01    0.10365E+02   -0.11450E+00    19   0.512E+00    0.146E+01
RMM:  13    -0.216191151177E+01    0.57436E+01   -0.91999E-01    20   0.517E+00    0.126E+01
RMM:  14    -0.264527814274E+01   -0.48337E+00   -0.20326E-02    23   0.851E-01    0.128E+01
RMM:  15    -0.437577090572E+01   -0.17305E+01   -0.20302E-01    19   0.295E+00    0.139E+01
RMM:  16    -0.857159609061E+01   -0.41958E+01   -0.73938E-01    19   0.516E+00    0.156E+01
RMM:  17    -0.130431087340E+01    0.72673E+01   -0.12445E+00    19   0.674E+00    0.862E+00
RMM:  18    -0.136484390034E+01   -0.60533E-01   -0.30401E-02    22   0.110E+00    0.949E+00
RMM:  19    -0.685716842452E+01   -0.54923E+01   -0.50663E-01    20   0.348E+00    0.310E+01
RMM:  20    -0.179300247543E+02   -0.11073E+02   -0.10019E+01    20   0.190E+01    0.181E+01
RMM:  21    -0.330911729617E+01    0.14621E+02   -0.43610E+00    19   0.134E+01    0.137E+01
RMM:  22    -0.196086340138E+01    0.13483E+01   -0.84681E-01    20   0.454E+00    0.229E+01
RMM:  23    -0.689321429274E+01   -0.49324E+01   -0.11605E+00    19   0.642E+00    0.144E+01
RMM:  24    -0.430530050565E+01    0.25879E+01   -0.72886E-02    19   0.195E+00    0.138E+01
RMM:  25    -0.154453287481E+01    0.27608E+01   -0.26744E-01    20   0.289E+00    0.111E+01
RMM:  26    -0.255949700154E+01   -0.10150E+01   -0.25263E-01    21   0.232E+00    0.276E+01
RMM:  27    -0.967533594189E+01   -0.71158E+01   -0.26233E+00    20   0.909E+00    0.153E+01
RMM:  28    -0.189240603726E+01    0.77829E+01   -0.13018E+00    19   0.703E+00    0.123E+01
RMM:  29    -0.161135503111E+01    0.28105E+00   -0.32700E-01    25   0.259E+00    0.183E+01
RMM:  30    -0.405912809130E+01   -0.24478E+01   -0.52701E-01    19   0.416E+00    0.137E+01
RMM:  31    -0.122647268187E+01    0.28327E+01   -0.22022E-01    19   0.297E+00    0.472E+00
RMM:  32    -0.235283022774E+01   -0.11264E+01   -0.10081E-01    21   0.156E+00    0.265E+01
RMM:  33    -0.704109624705E+01   -0.46883E+01   -0.15340E+00    20   0.693E+00    0.145E+01
RMM:  34    -0.129622773225E+01    0.57449E+01   -0.73182E-01    19   0.523E+00    0.733E+00
RMM:  35    -0.125116718342E+01    0.45061E-01   -0.26118E-02    26   0.804E-01    0.568E+00
RMM:  36    -0.121263786027E+01    0.38529E-01   -0.42058E-03    19   0.306E-01    0.378E+00
RMM:  37    -0.156819583856E+01   -0.35556E+00   -0.26407E-02    19   0.100E+00    0.111E+01
RMM:  38    -0.121305574447E+01    0.35514E+00   -0.18652E-02    19   0.895E-01    0.452E+00
RMM:  39    -0.130237945130E+01   -0.89324E-01   -0.67050E-03    20   0.601E-01    0.728E+00
RMM:  40    -0.142772241067E+01   -0.12534E+00   -0.18064E-02    19   0.790E-01    0.138E+01
RMM:  41    -0.249478204779E+01   -0.10671E+01   -0.16233E-01    19   0.232E+00    0.130E+01
RMM:  42    -0.171652174752E+01    0.77826E+00   -0.16082E-01    19   0.215E+00    0.201E+01
RMM:  43    -0.301485151745E+01   -0.12983E+01   -0.19979E-01    19   0.246E+00    0.132E+01
RMM:  44    -0.164075661769E+01    0.13741E+01   -0.22482E-01    18   0.250E+00    0.187E+01
RMM:  45    -0.289246111502E+01   -0.12517E+01   -0.16322E-01    19   0.227E+00    0.130E+01
RMM:  46    -0.127164514615E+01    0.16208E+01   -0.11534E-01    18   0.195E+00    0.799E+00
RMM:  47    -0.139546640333E+01   -0.12382E+00   -0.74689E-03    19   0.678E-01    0.910E+00
RMM:  48    -0.143433685326E+01   -0.38870E-01   -0.65945E-03    19   0.637E-01    0.985E+00
RMM:  49    -0.131379777098E+01    0.12054E+00   -0.79997E-04    18   0.214E-01    0.801E+00
RMM:  50    -0.120765358084E+01    0.10614E+00   -0.14621E-03    19   0.205E-01    0.362E+00
RMM:  51    -0.120779580048E+01   -0.14222E-03   -0.24743E-03    20   0.294E-01    0.286E+00
RMM:  52    -0.126002306157E+01   -0.52227E-01   -0.12518E-03    20   0.296E-01    0.682E+00
RMM:  53    -0.126632902050E+01   -0.63060E-02   -0.70095E-03    19   0.475E-01    0.636E+00
RMM:  54    -0.130515494268E+01   -0.38826E-01   -0.11161E-03    19   0.374E-01    0.744E+00
RMM:  55    -0.122152393432E+01    0.83631E-01   -0.44891E-04    16   0.156E-01    0.430E+00
RMM:  56    -0.119662257011E+01    0.24901E-01   -0.11014E-03    17   0.179E-01    0.289E-01
RMM:  57    -0.124710876618E+01   -0.50486E-01   -0.16696E-03    19   0.260E-01    0.590E+00
RMM:  58    -0.119695099728E+01    0.50158E-01   -0.85500E-04    18   0.282E-01    0.803E-01
RMM:  59    -0.121894767791E+01   -0.21997E-01   -0.11137E-03    19   0.223E-01    0.323E+00
RMM:  60    -0.120381044353E+01    0.15137E-01   -0.27813E-04    16   0.210E-01
   1 F= -.12038104E+01 E0= -.97875281E+00  d E =-.450115E+00
 running on    1 total cores
 distrk:  each k-point on    1 cores,    1 groups
 distr:  one band on    1 cores,    1 groups
 using from now: INCAR     
 vasp.5.3.3 18Dez12 (build Sep  7 2015 22:32:56) complex                        
  
 POSCAR found :  2 types and       2 ions
 LDA part: xc-table for Pade appr. of Perdew
 POSCAR, INCAR and KPOINTS ok, starting setup
 WARNING: small aliasing (wrap around) errors must be expected
 FFT: planning ...
 WAVECAR not read
 WARNING: random wavefunctions but no delay for mixing, default for NELMDL
 entering main loop
       N       E                     dE             d eps       ncg     rms          rms(c)
DAV:   1     0.522394793857E+02    0.52239E+02   -0.19252E+03    26   0.458E+02
DAV:   2     0.806740156341E+01   -0.44172E+02   -0.43925E+02    35   0.884E+01
DAV:   3    -0.674441568561E+01   -0.14812E+02   -0.14810E+02    20   0.541E+01
DAV:   4    -0.747454732328E+01   -0.73013E+00   -0.73000E+00    18   0.166E+01
DAV:   5    -0.749039348774E+01   -0.15846E-01   -0.15846E-01    26   0.211E+00    0.144E+01
RMM:   6    -0.392734478427E+02   -0.31783E+02   -0.19984E+01    20   0.238E+01    0.373E+01
RMM:   7    -0.112962443625E+01    0.38144E+02   -0.10716E+01    19   0.229E+01    0.508E+00
RMM:   8    -0.134997909939E+01   -0.22035E+00   -0.56383E-01    22   0.418E+00    0.782E+00
RMM:   9    -0.533452346714E+01   -0.39845E+01   -0.10953E+00    19   0.594E+00    0.131E+01
RMM:  10    -0.121728248944E+02   -0.68383E+01   -0.13733E+00    20   0.653E+00    0.151E+01
RMM:  11    -0.178956714604E+02   -0.57228E+01   -0.58869E-01    22   0.374E+00    0.160E+01
RMM:  12    -0.707751840382E+01    0.10818E+02   -0.12766E+00    20   0.565E+00    0.143E+01
RMM:  13    -0.545112035299E+01    0.16264E+01   -0.14061E-01    22   0.198E+00    0.138E+01
RMM:  14    -0.119397471055E+01    0.42571E+01   -0.75141E-01    20   0.407E+00    0.716E+00
RMM:  15    -0.177495321227E+01   -0.58098E+00   -0.62867E-02    21   0.173E+00    0.126E+01
RMM:  16    -0.235322409632E+01   -0.57827E+00   -0.18397E-01    20   0.197E+00    0.269E+01
RMM:  17    -0.465176686075E+01   -0.22985E+01   -0.67799E-01    19   0.469E+00    0.141E+01
RMM:  18    -0.209295849426E+01    0.25588E+01   -0.21239E-01    19   0.305E+00    0.129E+01
RMM:  19    -0.132075158830E+01    0.77221E+00   -0.13219E-01    20   0.177E+00    0.129E+01
RMM:  20    -0.111999822507E+01    0.20075E+00   -0.63138E-03    19   0.840E-01    0.291E+00
RMM:  21    -0.182842290382E+01   -0.70842E+00   -0.29767E-02    20   0.742E-01    0.227E+01
RMM:  22    -0.381503380777E+01   -0.19866E+01   -0.41626E-01    19   0.344E+00    0.137E+01
RMM:  23    -0.188407739853E+01    0.19310E+01   -0.11729E-01    19   0.231E+00    0.126E+01
RMM:  24    -0.120996652209E+01    0.67411E+00   -0.22177E-02    19   0.759E-01    0.703E+00
RMM:  25    -0.114508516838E+01    0.64881E-01   -0.43954E-03    24   0.339E-01    0.315E+00
RMM:  26    -0.118218906400E+01   -0.37104E-01   -0.12296E-03    18   0.273E-01    0.522E+00
RMM:  27    -0.114167192340E+01    0.40517E-01   -0.89347E-04    16   0.159E-01    0.209E+00
RMM:  28    -0.116860545620E+01   -0.26934E-01   -0.38626E-04    14   0.147E-01    0.433E+00
RMM:  29    -0.114453775358E+01    0.24068E-01   -0.23883E-04    15   0.106E-01    0.225E+00
RMM:  30    -0.116737248950E+01   -0.22835E-01   -0.99241E-05    11   0.842E-02    0.422E+00
RMM:  31    -0.114042644081E+01    0.26946E-01   -0.25872E-04    15   0.118E-01    0.145E+00
RMM:  32    -0.115795749278E+01   -0.17531E-01   -0.10505E-04    11   0.114E-01    0.337E+00
RMM:  33    -0.114019751593E+01    0.17760E-01   -0.17359E-04    14   0.948E-02    0.936E-01
RMM:  34    -0.115084563017E+01   -0.10648E-01   -0.75031E-05    11   0.967E-02    0.252E+00
RMM:  35    -0.114131451548E+01    0.95311E-02   -0.71536E-05    11   0.643E-02    0.810E-01
RMM:  36    -0.114456513118E+01   -0.32506E-02   -0.28436E-05    11   0.664E-02    0.137E+00
RMM:  37    -0.114341223054E+01    0.11529E-02   -0.57168E-06     7   0.192E-02    0.111E+00
RMM:  38    -0.114234230687E+01    0.10699E-02   -0.20830E-05    11   0.295E-02    0.564E-01
RMM:  39    -0.114333750178E+01   -0.99519E-03   -0.61293E-06    10   0.299E-02    0.848E-01
RMM:  40    -0.114228218386E+01    0.10553E-02   -0.19962E-05    11   0.278E-02    0.133E-01
RMM:  41    -0.114316800584E+01   -0.88582E-03   -0.12231E-05    10   0.435E-02    0.650E-01
RMM:  42    -0.114246378313E+01    0.70422E-03   -0.19300E-05    11   0.316E-02    0.131E-01
RMM:  43    -0.114304039974E+01   -0.57662E-03   -0.15736E-05    10   0.475E-02    0.537E-01
RMM:  44    -0.114259975265E+01    0.44065E-03   -0.16110E-05    10   0.343E-02    0.229E-01
RMM:  45    -0.114283476316E+01   -0.23501E-03   -0.13232E-05    10   0.439E-02    0.372E-01
RMM:  46    -0.114266240012E+01    0.17236E-03   -0.87773E-06    10   0.285E-02    0.208E-01
RMM:  47    -0.114270152671E+01   -0.39127E-04   -0.65387E-06     9   0.304E-02
   1 F= -.11427015E+01 E0= -.88602661E+00  d E =-.513350E+00
 running on    1 total cores
 distrk:  each k-point on    1 cores,    1 groups
 distr:  one band on    1 cores,    1 groups
 using from now: INCAR     
 vasp.5.3.3 18Dez12 (build Sep  7 2015 22:32:56) complex                        
  
 POSCAR found :  2 types and       2 ions
 LDA part: xc-table for Pade appr. of Perdew
 POSCAR, INCAR and KPOINTS ok, starting setup
 WARNING: small aliasing (wrap around) errors must be expected
 FFT: planning ...
 WAVECAR not read
 WARNING: random wavefunctions but no delay for mixing, default for NELMDL
 entering main loop
       N       E                     dE             d eps       ncg     rms          rms(c)
DAV:   1     0.524478561505E+02    0.52448E+02   -0.19238E+03    26   0.458E+02
DAV:   2     0.824633928371E+01   -0.44202E+02   -0.43993E+02    35   0.879E+01
DAV:   3    -0.666379119622E+01   -0.14910E+02   -0.14909E+02    20   0.543E+01
DAV:   4    -0.746959764585E+01   -0.80581E+00   -0.80573E+00    18   0.171E+01
DAV:   5    -0.748665666381E+01   -0.17059E-01   -0.17059E-01    26   0.218E+00    0.144E+01
RMM:   6    -0.394170149597E+02   -0.31930E+02   -0.19905E+01    20   0.237E+01    0.373E+01
RMM:   7    -0.108988498814E+01    0.38327E+02   -0.10851E+01    19   0.231E+01    0.533E+00
RMM:   8    -0.135417235066E+01   -0.26429E+00   -0.59470E-01    22   0.427E+00    0.863E+00
RMM:   9    -0.525658628041E+01   -0.39024E+01   -0.10510E+00    19   0.582E+00    0.131E+01
RMM:  10    -0.110287615849E+02   -0.57722E+01   -0.10117E+00    20   0.556E+00    0.148E+01
RMM:  11    -0.167374380558E+02   -0.57087E+01   -0.61652E-01    22   0.395E+00    0.158E+01
RMM:  12    -0.497370858475E+01    0.11764E+02   -0.15065E+00    20   0.613E+00    0.140E+01
RMM:  13    -0.486617272012E+01    0.10754E+00   -0.44439E-02    25   0.110E+00    0.138E+01
RMM:  14    -0.274223861654E+01    0.21239E+01   -0.53985E-02    19   0.114E+00    0.136E+01
RMM:  15    -0.335237960355E+01   -0.61014E+00   -0.82022E-01    20   0.379E+00    0.297E+01
RMM:  16    -0.125273667682E+01    0.20996E+01   -0.23261E-01    19   0.323E+00    0.972E+00
RMM:  17    -0.454480591905E+01   -0.32921E+01   -0.47399E-01    19   0.324E+00    0.147E+01
RMM:  18    -0.483589750509E+01   -0.29109E+00   -0.81913E-02    22   0.243E+00    0.142E+01
RMM:  19    -0.284481598913E+01    0.19911E+01   -0.96038E-02    19   0.166E+00    0.137E+01
RMM:  20    -0.319476364038E+01   -0.34995E+00   -0.21619E-03    17   0.294E-01    0.137E+01
RMM:  21    -0.418517603811E+01   -0.99041E+00   -0.17432E-02    19   0.725E-01    0.140E+01
RMM:  22    -0.449979381486E+01   -0.31462E+00   -0.35049E-03    23   0.295E-01    0.141E+01
RMM:  23    -0.390222896057E+01    0.59756E+00   -0.44544E-03    19   0.355E-01    0.139E+01
RMM:  24    -0.167859671036E+02   -0.12884E+02   -0.53902E+00    20   0.104E+01    0.318E+01
RMM:  25    -0.167110489438E+02    0.74918E-01   -0.92270E+00    20   0.171E+01    0.173E+01
RMM:  26    -0.138488388026E+01    0.15326E+02   -0.39071E+00    19   0.120E+01    0.113E+01
RMM:  27    -0.122587619321E+01    0.15901E+00   -0.42276E-01    25   0.314E+00    0.101E+01
RMM:  28    -0.302856535813E+02   -0.29060E+02   -0.22814E+01    23   0.192E+01    0.183E+01
RMM:  29    -0.174944149937E+01    0.28536E+02   -0.14020E+01    20   0.187E+01    0.176E+01
RMM:  30    -0.362695127380E+02   -0.34520E+02   -0.37076E+01    23   0.200E+01    0.185E+01
RMM:  31    -0.632529660080E+01    0.29944E+02   -0.88409E+00    20   0.146E+01    0.144E+01
RMM:  32    -0.407157892140E+01    0.22537E+01   -0.14083E+01    22   0.159E+01    0.300E+01
RMM:  33    -0.203911080905E+02   -0.16320E+02   -0.63985E+00    23   0.129E+01    0.166E+01
RMM:  34    -0.639156388097E+01    0.14000E+02   -0.19808E+00    19   0.713E+00    0.145E+01
RMM:  35    -0.109353057350E+01    0.52980E+01   -0.84727E-01    20   0.463E+00    0.297E+00
RMM:  36    -0.797713411702E+01   -0.68836E+01   -0.89843E-01    19   0.458E+00    0.144E+01
RMM:  37    -0.223107560940E+01    0.57461E+01   -0.24273E+00    20   0.707E+00    0.265E+01
RMM:  38    -0.137023277959E+02   -0.11471E+02   -0.29794E+00    20   0.868E+00    0.156E+01
RMM:  39    -0.206269820989E+01    0.11640E+02   -0.16082E+00    19   0.676E+00    0.134E+01
RMM:  40    -0.779788207264E+01   -0.57352E+01   -0.21919E+00    25   0.648E+00    0.312E+01
RMM:  41    -0.196957098313E+02   -0.11898E+02   -0.80044E+00    20   0.150E+01    0.169E+01
RMM:  42    -0.177005102095E+01    0.17926E+02   -0.41038E+00    19   0.111E+01    0.130E+01
RMM:  43    -0.592106505923E+01   -0.41510E+01   -0.20682E+00    24   0.644E+00    0.308E+01
RMM:  44    -0.153455649220E+02   -0.94245E+01   -0.46531E+00    20   0.110E+01    0.157E+01
RMM:  45    -0.500528084682E+01    0.10340E+02   -0.11067E+00    19   0.553E+00    0.141E+01
RMM:  46    -0.127929427647E+01    0.37260E+01   -0.15821E+00    19   0.563E+00    0.121E+01
RMM:  47    -0.930890813464E+01   -0.80296E+01   -0.15943E+00    20   0.613E+00    0.147E+01
RMM:  48    -0.235217560531E+01    0.69567E+01   -0.28925E+00    19   0.786E+00    0.271E+01
RMM:  49    -0.131198107263E+02   -0.10768E+02   -0.23880E+00    20   0.771E+00    0.151E+01
RMM:  50    -0.281680381256E+01    0.10303E+02   -0.10835E+00    19   0.534E+00    0.136E+01
RMM:  51    -0.192526046468E+01    0.89154E+00   -0.13628E-01    25   0.188E+00    0.129E+01
RMM:  52    -0.605047767904E+01   -0.41252E+01   -0.79279E-01    20   0.388E+00    0.309E+01
RMM:  53    -0.180427731032E+02   -0.11992E+02   -0.57758E+00    20   0.123E+01    0.162E+01
RMM:  54    -0.171397252742E+01    0.16329E+02   -0.32029E+00    19   0.910E+00    0.129E+01
RMM:  55    -0.307332670649E+01   -0.13594E+01   -0.11757E+00    23   0.492E+00    0.296E+01
RMM:  56    -0.102462787704E+02   -0.71730E+01   -0.18735E+00    20   0.674E+00    0.147E+01
RMM:  57    -0.586022624275E+01    0.43861E+01   -0.15654E-01    19   0.226E+00    0.141E+01
RMM:  58    -0.542931830711E+01    0.43091E+00   -0.11291E-02    25   0.575E-01    0.140E+01
RMM:  59    -0.518747059558E+01    0.24185E+00   -0.84901E-04    18   0.181E-01    0.140E+01
RMM:  60    -0.455401242704E+01    0.63346E+00   -0.12609E-02    19   0.638E-01
   1 F= -.45540124E+01 E0= -.45540124E+01  d E =-.138634E-10
 running on    1 total cores
 distrk:  each k-point on    1 cores,    1 groups
 distr:  one band on    1 cores,    1 groups
 using from now: INCAR     
 vasp.5.3.3 18Dez12 (build Sep  7 2015 22:32:56) complex                        
  
 POSCAR found :  2 types and       2 ions
 LDA part: xc-table for Pade appr. of Perdew
 POSCAR, INCAR and KPOINTS ok, starting setup
 WARNING: small aliasing (wrap around) errors must be expected
 FFT: planning ...
 WAVECAR not read
 WARNING: random wavefunctions but no delay for mixing, default for NELMDL
 entering main loop
       N       E                     dE             d eps       ncg     rms          rms(c)
DAV:   1     0.527406172602E+02    0.52741E+02   -0.19215E+03    26   0.458E+02
DAV:   2     0.861184001424E+01   -0.44129E+02   -0.43923E+02    35   0.871E+01
DAV:   3    -0.662704490802E+01   -0.15239E+02   -0.15238E+02    20   0.549E+01
DAV:   4    -0.746635790967E+01   -0.83931E+00   -0.83929E+00    18   0.175E+01
DAV:   5    -0.748398676033E+01   -0.17629E-01   -0.17629E-01    26   0.223E+00    0.144E+01
RMM:   6    -0.395161163618E+02   -0.32032E+02   -0.19840E+01    20   0.237E+01    0.373E+01
RMM:   7    -0.106341295071E+01    0.38453E+02   -0.10959E+01    19   0.232E+01    0.541E+00
RMM:   8    -0.134945874117E+01   -0.28605E+00   -0.60793E-01    22   0.431E+00    0.904E+00
RMM:   9    -0.531771881384E+01   -0.39683E+01   -0.10662E+00    19   0.588E+00    0.132E+01
RMM:  10    -0.105559859302E+02   -0.52383E+01   -0.85050E-01    20   0.508E+00    0.147E+01
RMM:  11    -0.161445719167E+02   -0.55886E+01   -0.60156E-01    22   0.394E+00    0.157E+01
RMM:  12    -0.451563223165E+01    0.11629E+02   -0.14689E+00    20   0.606E+00    0.139E+01
RMM:  13    -0.438937894900E+01    0.12625E+00   -0.45062E-02    25   0.110E+00    0.137E+01
RMM:  14    -0.247667287278E+01    0.19127E+01   -0.41546E-02    19   0.103E+00    0.136E+01
RMM:  15    -0.573630180903E+01   -0.32596E+01   -0.11231E+00    20   0.448E+00    0.307E+01
RMM:  16    -0.220539037561E+01    0.35309E+01   -0.73591E-01    19   0.535E+00    0.143E+01
RMM:  17    -0.527487500668E+01   -0.30695E+01   -0.17454E-01    19   0.306E+00    0.142E+01
RMM:  18    -0.265518838623E+01    0.26197E+01   -0.11768E-01    19   0.191E+00    0.136E+01
RMM:  19    -0.313870686104E+01   -0.48352E+00   -0.19880E-03    19   0.276E-01    0.137E+01
RMM:  20    -0.365705339340E+01   -0.51835E+00   -0.52516E-03    19   0.407E-01    0.138E+01
RMM:  21    -0.429724359486E+01   -0.64019E+00   -0.88814E-03    19   0.476E-01    0.140E+01
RMM:  22    -0.129851470941E+01    0.29987E+01   -0.15739E-01    19   0.206E+00    0.106E+01
RMM:  23    -0.340612286712E+01   -0.21076E+01   -0.71876E-02    19   0.149E+00    0.138E+01
RMM:  24    -0.353510113327E+01   -0.12898E+00   -0.73200E-01    20   0.385E+00    0.303E+01
RMM:  25    -0.170108054828E+02   -0.13476E+02   -0.50560E+00    20   0.121E+01    0.166E+01
RMM:  26    -0.310223270262E+01    0.13909E+02   -0.25156E+00    19   0.893E+00    0.137E+01
RMM:  27    -0.124952627816E+01    0.18527E+01   -0.89931E-01    20   0.421E+00    0.122E+01
RMM:  28    -0.560549300806E+01   -0.43560E+01   -0.52728E-01    19   0.356E+00    0.140E+01
RMM:  29    -0.361597885988E+01    0.19895E+01   -0.29494E-02    19   0.111E+00    0.138E+01
RMM:  30    -0.958791762347E+01   -0.59719E+01   -0.25752E+00    20   0.712E+00    0.312E+01
RMM:  31    -0.216081426684E+02   -0.12020E+02   -0.97516E+00    20   0.172E+01    0.175E+01
RMM:  32    -0.104778161371E+01    0.20560E+02   -0.61816E+00    19   0.140E+01    0.202E+00
RMM:  33    -0.544149153095E+01   -0.43937E+01   -0.18523E-01    19   0.254E+00    0.137E+01
RMM:  34    -0.112703634442E+01    0.43145E+01   -0.22956E-01    19   0.232E+00    0.660E+00
RMM:  35    -0.366587660281E+01   -0.25388E+01   -0.34767E-01    23   0.245E+00    0.305E+01
RMM:  36    -0.174150819520E+02   -0.13749E+02   -0.53642E+00    20   0.122E+01    0.164E+01
RMM:  37    -0.196261819594E+01    0.15452E+02   -0.30392E+00    19   0.935E+00    0.133E+01
RMM:  38    -0.573632498299E+01   -0.37737E+01   -0.17475E+00    23   0.588E+00    0.308E+01
RMM:  39    -0.166438299671E+02   -0.10908E+02   -0.55620E+00    20   0.122E+01    0.161E+01
RMM:  40    -0.268483547335E+01    0.13959E+02   -0.23864E+00    19   0.823E+00    0.135E+01
RMM:  41    -0.332639471015E+01   -0.64156E+00   -0.16652E+00    26   0.551E+00    0.302E+01
RMM:  42    -0.155395437329E+02   -0.12213E+02   -0.44937E+00    20   0.110E+01    0.159E+01
RMM:  43    -0.238010610271E+01    0.13159E+02   -0.22461E+00    19   0.810E+00    0.133E+01
RMM:  44    -0.310613327635E+01   -0.72603E+00   -0.11872E+00    21   0.474E+00    0.298E+01
RMM:  45    -0.147664686769E+02   -0.11660E+02   -0.36498E+00    20   0.967E+00    0.155E+01
RMM:  46    -0.264631191162E+01    0.12120E+02   -0.17089E+00    19   0.672E+00    0.135E+01
RMM:  47    -0.285516318005E+01   -0.20885E+00   -0.13406E+00    26   0.491E+00    0.294E+01
RMM:  48    -0.142118952240E+02   -0.11357E+02   -0.37961E+00    20   0.100E+01    0.156E+01
RMM:  49    -0.218553767182E+01    0.12026E+02   -0.19005E+00    19   0.742E+00    0.132E+01
RMM:  50    -0.212524204584E+01    0.60296E-01   -0.80338E-01    21   0.395E+00    0.262E+01
RMM:  51    -0.104911039055E+02   -0.83659E+01   -0.20022E+00    20   0.696E+00    0.147E+01
RMM:  52    -0.291206143915E+01    0.75790E+01   -0.64648E-01    19   0.422E+00    0.134E+01
RMM:  53    -0.131829503434E+01    0.15938E+01   -0.13281E-01    25   0.179E+00    0.105E+01
RMM:  54    -0.265378425759E+01   -0.13355E+01   -0.17026E-01    19   0.179E+00    0.289E+01
RMM:  55    -0.102976316808E+02   -0.76438E+01   -0.19951E+00    20   0.713E+00    0.148E+01
RMM:  56    -0.342802792439E+01    0.68696E+01   -0.56066E-01    19   0.405E+00    0.135E+01
RMM:  57    -0.384183950813E+01   -0.41381E+00   -0.49618E-03    19   0.483E-01    0.135E+01
RMM:  58    -0.238388218071E+01    0.14580E+01   -0.41637E-02    19   0.972E-01    0.132E+01
RMM:  59    -0.127737795162E+01    0.11065E+01   -0.33109E-02    19   0.875E-01    0.101E+01
RMM:  60    -0.106332217560E+01    0.21406E+00   -0.11996E-02    25   0.489E-01
   1 F= -.10633222E+01 E0= -.78878870E+00  d E =-.549067E+00
 running on    1 total cores
 distrk:  each k-point on    1 cores,    1 groups
 distr:  one band on    1 cores,    1 groups
 using from now: INCAR     
 vasp.5.3.3 18Dez12 (build Sep  7 2015 22:32:56) complex                        
  
 POSCAR found :  2 types and       2 ions
 LDA part: xc-table for Pade appr. of Perdew
 POSCAR, INCAR and KPOINTS ok, starting setup
 WARNING: small aliasing (wrap around) errors must be expected
 FFT: planning ...
 WAVECAR not read
 WARNING: random wavefunctions but no delay for mixing, default for NELMDL
 entering main loop
       N       E                     dE             d eps       ncg     rms          rms(c)
DAV:   1     0.533275806602E+02    0.53328E+02   -0.19170E+03    26   0.458E+02
DAV:   2     0.996126683552E+01   -0.43366E+02   -0.43043E+02    35   0.856E+01
DAV:   3    -0.662895898481E+01   -0.16590E+02   -0.16590E+02    20   0.575E+01
DAV:   4    -0.746352546477E+01   -0.83457E+00   -0.83454E+00    18   0.184E+01
DAV:   5    -0.748112907666E+01   -0.17604E-01   -0.17604E-01    26   0.221E+00    0.145E+01
RMM:   6    -0.396366057660E+02   -0.32155E+02   -0.19726E+01    20   0.236E+01    0.373E+01
RMM:   7    -0.104217430081E+01    0.38594E+02   -0.11121E+01    19   0.234E+01    0.542E+00
RMM:   8    -0.133783963181E+01   -0.29567E+00   -0.60604E-01    22   0.431E+00    0.931E+00
RMM:   9    -0.539363164752E+01   -0.40558E+01   -0.10771E+00    19   0.595E+00    0.132E+01
RMM:  10    -0.102144848842E+02   -0.48209E+01   -0.72249E-01    20   0.466E+00    0.146E+01
RMM:  11    -0.157797973477E+02   -0.55653E+01   -0.59766E-01    22   0.396E+00    0.157E+01
RMM:  12    -0.441234357723E+01    0.11367E+02   -0.13832E+00    20   0.591E+00    0.139E+01
RMM:  13    -0.393176617338E+01    0.48058E+00   -0.66493E-02    25   0.131E+00    0.136E+01
RMM:  14    -0.106441996054E+01    0.28673E+01   -0.13420E-01    19   0.172E+00    0.343E+00
RMM:  15    -0.102944765373E+01    0.34972E-01   -0.18553E-02    23   0.859E-01    0.297E+00
RMM:  16    -0.115273133728E+01   -0.12328E+00   -0.95684E-03    19   0.653E-01    0.901E+00
RMM:  17    -0.269206868558E+01   -0.15393E+01   -0.65647E-02    19   0.128E+00    0.289E+01
RMM:  18    -0.318160656224E+01   -0.48954E+00   -0.34813E-01    19   0.341E+00    0.139E+01
RMM:  19    -0.130224592401E+01    0.18794E+01   -0.13152E-01    19   0.243E+00    0.106E+01
RMM:  20    -0.196385603440E+01   -0.66161E+00   -0.98750E-02    19   0.144E+00    0.251E+01
RMM:  21    -0.377037608385E+01   -0.18065E+01   -0.31493E-01    19   0.302E+00    0.137E+01
RMM:  22    -0.164138255684E+01    0.21290E+01   -0.82826E-02    19   0.184E+00    0.127E+01
RMM:  23    -0.121115772149E+01    0.43022E+00   -0.15448E-02    26   0.626E-01    0.932E+00
RMM:  24    -0.132480112320E+01   -0.11364E+00   -0.10047E-03    15   0.205E-01    0.109E+01
RMM:  25    -0.114859197204E+01    0.17621E+00   -0.89546E-04    19   0.150E-01    0.787E+00
RMM:  26    -0.116006177834E+01   -0.11470E-01   -0.14716E-04    14   0.112E-01    0.801E+00
RMM:  27    -0.104759100255E+01    0.11247E+00   -0.39469E-03    19   0.320E-01    0.699E-01
RMM:  28    -0.120121967293E+01   -0.15363E+00   -0.26067E-03    19   0.348E-01    0.868E+00
RMM:  29    -0.106457206806E+01    0.13665E+00   -0.43164E-03    19   0.391E-01    0.355E+00
RMM:  30    -0.133899773451E+01   -0.27443E+00   -0.94907E-03    19   0.523E-01    0.108E+01
RMM:  31    -0.107653665954E+01    0.26246E+00   -0.89081E-03    19   0.561E-01    0.504E+00
RMM:  32    -0.134304326321E+01   -0.26651E+00   -0.10186E-02    19   0.558E-01    0.108E+01
RMM:  33    -0.106103351918E+01    0.28201E+00   -0.64770E-03    19   0.500E-01    0.347E+00
RMM:  34    -0.119746908777E+01   -0.13644E+00   -0.33953E-03    19   0.392E-01    0.852E+00
RMM:  35    -0.105747163681E+01    0.14000E+00   -0.28701E-03    19   0.361E-01    0.245E+00
RMM:  36    -0.112966798964E+01   -0.72196E-01   -0.17470E-03    19   0.311E-01    0.650E+00
RMM:  37    -0.105816798054E+01    0.71500E-01   -0.16964E-03    19   0.289E-01    0.199E+00
RMM:  38    -0.110486526261E+01   -0.46697E-01   -0.13078E-03    19   0.269E-01    0.538E+00
RMM:  39    -0.106262408531E+01    0.42241E-01   -0.15535E-03    19   0.270E-01    0.251E+00
RMM:  40    -0.110012026659E+01   -0.37496E-01   -0.15879E-03    19   0.283E-01    0.514E+00
RMM:  41    -0.106702344720E+01    0.33097E-01   -0.17069E-03    19   0.290E-01    0.307E+00
RMM:  42    -0.109497106256E+01   -0.27948E-01   -0.16885E-03    19   0.291E-01    0.486E+00
RMM:  43    -0.106828614559E+01    0.26685E-01   -0.16022E-03    19   0.290E-01    0.316E+00
RMM:  44    -0.108616930529E+01   -0.17883E-01   -0.14335E-03    19   0.279E-01    0.428E+00
RMM:  45    -0.106773234488E+01    0.18437E-01   -0.13004E-03    19   0.274E-01    0.299E+00
RMM:  46    -0.107809591035E+01   -0.10364E-01   -0.11255E-03    19   0.260E-01    0.364E+00
RMM:  47    -0.106597546585E+01    0.12120E-01   -0.96262E-04    19   0.253E-01    0.261E+00
RMM:  48    -0.106957008791E+01   -0.35946E-02   -0.71552E-04    17   0.231E-01    0.274E+00
RMM:  49    -0.106270343127E+01    0.68667E-02   -0.53052E-04    18   0.217E-01    0.185E+00
RMM:  50    -0.106418524368E+01   -0.14818E-02   -0.36566E-04    16   0.191E-01    0.188E+00
RMM:  51    -0.105897607094E+01    0.52092E-02   -0.15255E-04    10   0.171E-01    0.117E-01
RMM:  52    -0.105995745615E+01   -0.98139E-03   -0.49075E-05    10   0.852E-02    0.442E-01
RMM:  53    -0.105968359224E+01    0.27386E-03   -0.15402E-05    10   0.542E-02    0.678E-02
RMM:  54    -0.105971600319E+01   -0.32411E-04   -0.31546E-06     7   0.245E-02
   1 F= -.10597160E+01 E0= -.77249178E+00  d E =-.574448E+00
 running on    1 total cores
 distrk:  each k-point on    1 cores,    1 groups
 distr:  one band on    1 cores,    1 groups
 using from now: INCAR     
 vasp.5.3.3 18Dez12 (build Sep  7 2015 22:32:56) complex                        
  
 POSCAR found :  2 types and       2 ions
 LDA part: xc-table for Pade appr. of Perdew
 POSCAR, INCAR and KPOINTS ok, starting setup
 WARNING: small aliasing (wrap around) errors must be expected
 FFT: planning ...
 WAVECAR not read
 WARNING: random wavefunctions but no delay for mixing, default for NELMDL
 entering main loop
       N       E                     dE             d eps       ncg     rms          rms(c)
DAV:   1     0.538050241090E+02    0.53805E+02   -0.19132E+03    26   0.458E+02
DAV:   2     0.102429534359E+02   -0.43562E+02   -0.43303E+02    35   0.845E+01
DAV:   3    -0.661794480713E+01   -0.16861E+02   -0.16861E+02    20   0.582E+01
DAV:   4    -0.746346620598E+01   -0.84552E+00   -0.84550E+00    18   0.197E+01
DAV:   5    -0.748041234194E+01   -0.16946E-01   -0.16946E-01    26   0.214E+00    0.145E+01
RMM:   6    -0.396779505936E+02   -0.32198E+02   -0.19698E+01    20   0.236E+01    0.373E+01
RMM:   7    -0.103319427506E+01    0.38645E+02   -0.11191E+01    19   0.235E+01    0.549E+00
RMM:   8    -0.134290865859E+01   -0.30971E+00   -0.60566E-01    22   0.431E+00    0.949E+00
RMM:   9    -0.536070817736E+01   -0.40178E+01   -0.10522E+00    19   0.589E+00    0.132E+01
RMM:  10    -0.100092614779E+02   -0.46486E+01   -0.67171E-01    20   0.449E+00    0.145E+01
RMM:  11    -0.155868072253E+02   -0.55775E+01   -0.59900E-01    22   0.398E+00    0.156E+01
RMM:  12    -0.447017287816E+01    0.11117E+02   -0.13147E+00    20   0.579E+00    0.139E+01
RMM:  13    -0.382551766647E+01    0.64466E+00   -0.76937E-02    25   0.141E+00    0.136E+01
RMM:  14    -0.198393687045E+01    0.18416E+01   -0.78392E-01    20   0.362E+00    0.246E+01
RMM:  15    -0.355347329212E+01   -0.15695E+01   -0.65352E-01    19   0.494E+00    0.144E+01
RMM:  16    -0.291627067781E+01    0.63720E+00   -0.22162E-01    19   0.360E+00    0.136E+01
RMM:  17    -0.118631199504E+01    0.17300E+01   -0.11095E-01    19   0.172E+00    0.919E+00
RMM:  18    -0.109026790729E+01    0.96044E-01   -0.99083E-03    25   0.453E-01    0.615E+00
RMM:  19    -0.131195652918E+01   -0.22169E+00   -0.24036E-03    19   0.291E-01    0.108E+01
RMM:  20    -0.105213889114E+01    0.25982E+00   -0.21563E-03    19   0.250E-01    0.395E+00
RMM:  21    -0.112267493485E+01   -0.70536E-01   -0.33434E-04    15   0.198E-01    0.704E+00
RMM:  22    -0.106593687531E+01    0.56738E-01   -0.74504E-04    15   0.168E-01    0.441E+00
RMM:  23    -0.116254841972E+01   -0.96612E-01   -0.10732E-03    15   0.202E-01    0.821E+00
RMM:  24    -0.104311229878E+01    0.11944E+00   -0.20534E-03    19   0.275E-01    0.206E+00
RMM:  25    -0.112804152092E+01   -0.84929E-01   -0.65837E-04    18   0.191E-01    0.704E+00
RMM:  26    -0.104227516906E+01    0.85766E-01   -0.18515E-03    19   0.263E-01    0.525E-01
RMM:  27    -0.111313553818E+01   -0.70860E-01   -0.90438E-04    18   0.220E-01    0.630E+00
RMM:  28    -0.104457239160E+01    0.68563E-01   -0.16892E-03    19   0.269E-01    0.274E-01
RMM:  29    -0.107687769485E+01   -0.32305E-01   -0.44555E-04    16   0.201E-01    0.420E+00
RMM:  30    -0.104801997544E+01    0.28858E-01   -0.58454E-04    19   0.181E-01    0.225E-01
RMM:  31    -0.105835500126E+01   -0.10335E-01   -0.11238E-04    12   0.125E-01    0.223E+00
RMM:  32    -0.105111471202E+01    0.72403E-02   -0.12717E-04    11   0.915E-02    0.673E-01
RMM:  33    -0.105300943161E+01   -0.18947E-02   -0.74382E-05    11   0.851E-02    0.101E+00
RMM:  34    -0.105264505137E+01    0.36438E-03   -0.37511E-05    10   0.399E-02    0.870E-01
RMM:  35    -0.105186706787E+01    0.77798E-03   -0.88310E-05    11   0.557E-02    0.326E-02
RMM:  36    -0.105246396792E+01   -0.59690E-03   -0.61594E-05    10   0.705E-02    0.340E-01
RMM:  37    -0.105231336927E+01    0.15060E-03   -0.31679E-05     9   0.344E-02    0.229E-02
RMM:  38    -0.105239897419E+01   -0.85605E-04   -0.15151E-05    10   0.330E-02
   1 F= -.10523990E+01 E0= -.76488337E+00  d E =-.575031E+00
 running on    1 total cores
 distrk:  each k-point on    1 cores,    1 groups
 distr:  one band on    1 cores,    1 groups
 using from now: INCAR     
 vasp.5.3.3 18Dez12 (build Sep  7 2015 22:32:56) complex                        
  
 POSCAR found :  2 types and       2 ions
 LDA part: xc-table for Pade appr. of Perdew

 ----------------------------------------------------------------------------- 
|                                                                             |
|           W    W    AA    RRRRR   N    N  II  N    N   GGGG   !!!           |
|           W    W   A  A   R    R  NN   N  II  NN   N  G    G  !!!           |
|           W    W  A    A  R    R  N N  N  II  N N  N  G       !!!           |
|           W WW W  AAAAAA  RRRRR   N  N N  II  N  N N  G  GGG   !            |
|           WW  WW  A    A  R   R   N   NN  II  N   NN  G    G                |
|           W    W  A    A  R    R  N    N  II  N    N   GGGG   !!!           |
|                                                                             |
|      The distance between some ions is very small                           |
|      please check the nearest neigbor list in the OUTCAR file               |
|          I HOPE YOU KNOW, WHAT YOU ARE  DOING                               |
|                                                                             |
 ----------------------------------------------------------------------------- 

 POSCAR, INCAR and KPOINTS ok, starting setup
 WARNING: small aliasing (wrap around) errors must be expected
 FFT: planning ...
 WAVECAR not read
 WARNING: random wavefunctions but no delay for mixing, default for NELMDL
 entering main loop
       N       E                     dE             d eps       ncg     rms          rms(c)
DAV:   1     0.113578119540E+03    0.11358E+03   -0.20388E+03    18   0.467E+02
DAV:   2     0.766711949764E+01   -0.10591E+03   -0.10568E+03    35   0.142E+02
DAV:   3    -0.110316047333E+02   -0.18699E+02   -0.18697E+02    18   0.882E+01
DAV:   4    -0.115616969698E+02   -0.53009E+00   -0.53009E+00    34   0.171E+01
DAV:   5    -0.115618610268E+02   -0.16406E-03   -0.16406E-03    28   0.316E-01    0.112E+01
RMM:   6    -0.894855328810E+01    0.26133E+01   -0.43937E+00    23   0.178E+01    0.541E+00
RMM:   7    -0.844368205336E+01    0.50487E+00   -0.19617E+00    25   0.106E+01    0.201E+00
RMM:   8    -0.844087726713E+01    0.28048E-02   -0.11586E-01    25   0.261E+00    0.822E-01
RMM:   9    -0.843951832613E+01    0.13589E-02   -0.10128E-02    24   0.851E-01    0.831E-02
RMM:  10    -0.844221555839E+01   -0.26972E-02   -0.12030E-03    25   0.249E-01    0.503E-02
RMM:  11    -0.844512999263E+01   -0.29144E-02   -0.98712E-04    19   0.166E-01    0.278E-02
RMM:  12    -0.844797594514E+01   -0.28460E-02   -0.82542E-04    19   0.144E-01    0.483E-02
RMM:  13    -0.844814621606E+01   -0.17027E-03   -0.15160E-04    21   0.794E-02    0.914E-03
RMM:  14    -0.844878932109E+01   -0.64311E-03   -0.72067E-05    19   0.578E-02    0.993E-03
RMM:  15    -0.844897339941E+01   -0.18408E-03   -0.24329E-05    19   0.271E-02    0.431E-03
RMM:  16    -0.844903050286E+01   -0.57103E-04   -0.16147E-05    20   0.289E-02
   1 F= -.84490305E+01 E0= -.84490305E+01  d E =-.556737E-11
