 running on    1 total cores
 distrk:  each k-point on    1 cores,    1 groups
 distr:  one band on    1 cores,    1 groups
 using from now: INCAR     
 vasp.5.3.3 18Dez12 (build Sep  7 2015 22:32:56) complex                        
  
 POSCAR found :  2 types and       2 ions
 LDA part: xc-table for Pade appr. of Perdew
 POSCAR, INCAR and KPOINTS ok, starting setup
 WARNING: small aliasing (wrap around) errors must be expected
 FFT: planning ...
 WAVECAR not read
 WARNING: random wavefunctions but no delay for mixing, default for NELMDL
 entering main loop
       N       E                     dE             d eps       ncg     rms          rms(c)
DAV:   1     0.790394779508E+02    0.79039E+02   -0.19218E+03    18   0.462E+02
DAV:   2     0.172341353742E+01   -0.77316E+02   -0.77084E+02    34   0.118E+02
DAV:   3    -0.150623054843E+02   -0.16786E+02   -0.16781E+02    35   0.747E+01
DAV:   4    -0.152967376369E+02   -0.23443E+00   -0.23443E+00    20   0.892E+00
DAV:   5    -0.152985691982E+02   -0.18316E-02   -0.18316E-02    27   0.883E-01    0.636E+00
RMM:   6    -0.147941757677E+02    0.50439E+00   -0.16233E+00    18   0.103E+01    0.352E+00
RMM:   7    -0.146692814307E+02    0.12489E+00   -0.17984E-01    18   0.314E+00    0.195E+00
RMM:   8    -0.146369824576E+02    0.32299E-01   -0.13248E-01    18   0.252E+00    0.353E-01
RMM:   9    -0.146363927141E+02    0.58974E-03   -0.51691E-03    18   0.571E-01    0.155E-01
RMM:  10    -0.146369784694E+02   -0.58576E-03   -0.15112E-03    18   0.344E-01    0.354E-02
RMM:  11    -0.146385171716E+02   -0.15387E-02   -0.71707E-04    17   0.163E-01    0.391E-02
RMM:  12    -0.146390389004E+02   -0.52173E-03   -0.18934E-04    14   0.993E-02    0.125E-02
RMM:  13    -0.146400424309E+02   -0.10035E-02   -0.15368E-04    14   0.676E-02    0.150E-02
RMM:  14    -0.146400946710E+02   -0.52240E-04   -0.21643E-05    12   0.314E-02
   1 F= -.14640095E+02 E0= -.14640095E+02  d E =-.146401E+02
 BRION: g(F)=  0.267E+01 g(S)=  0.000E+00
 bond charge predicted
       N       E                     dE             d eps       ncg     rms          rms(c)
DAV:   1     0.227905938358E+02    0.37431E+02   -0.76592E+02    18   0.294E+02    0.257E+01
RMM:   2     0.243673466366E+02    0.15768E+01   -0.25160E+01    18   0.541E+01    0.314E+01
RMM:   3     0.214809441214E+02   -0.28864E+01   -0.38080E+00    18   0.180E+01    0.492E+01
RMM:   4     0.261151537327E+02    0.46342E+01   -0.15585E+01    18   0.336E+01    0.690E+00
RMM:   5     0.261262176428E+02    0.11064E-01   -0.25129E-01    18   0.387E+00    0.366E+00
RMM:   6     0.261218257576E+02   -0.43919E-02   -0.21385E-02    19   0.109E+00    0.199E+00
RMM:   7     0.261171327668E+02   -0.46930E-02   -0.86305E-03    18   0.918E-01    0.268E-01
RMM:   8     0.261170034845E+02   -0.12928E-03   -0.15181E-03    18   0.300E-01    0.539E-02
RMM:   9     0.261133464210E+02   -0.36571E-02   -0.43621E-03    18   0.425E-01    0.263E-01
RMM:  10     0.261120824977E+02   -0.12639E-02   -0.17681E-03    18   0.308E-01    0.102E-01
RMM:  11     0.261103407686E+02   -0.17417E-02   -0.51036E-04    15   0.156E-01    0.221E-02
RMM:  12     0.261100182184E+02   -0.32255E-03   -0.11172E-04    13   0.800E-02    0.174E-02
RMM:  13     0.261098539646E+02   -0.16425E-03   -0.18859E-05    12   0.305E-02    0.144E-02
RMM:  14     0.261096932765E+02   -0.16069E-03   -0.19485E-05    12   0.263E-02    0.521E-03
RMM:  15     0.261096639435E+02   -0.29333E-04   -0.80724E-06    12   0.217E-02
   2 F= 0.26109664E+02 E0= 0.26109664E+02  d E =0.407498E+02
 BRION: g(F)=  0.944E+04 g(S)=  0.000E+00 retain N=  1 mean eig= 0.02
 eig:   0.017
 bond charge predicted
       N       E                     dE             d eps       ncg     rms          rms(c)
DAV:   1    -0.192695305755E+02   -0.45379E+02   -0.74419E+02    18   0.293E+02    0.366E+01
RMM:   2    -0.156534901170E+02    0.36160E+01   -0.19204E+01    18   0.400E+01    0.214E+01
RMM:   3    -0.147200833161E+02    0.93341E+00   -0.67570E+00    18   0.186E+01    0.455E+00
RMM:   4    -0.147485040250E+02   -0.28421E-01   -0.37909E-01    20   0.427E+00    0.144E+00
RMM:   5    -0.148025696156E+02   -0.54066E-01   -0.14971E+00    18   0.738E+00    0.194E+00
RMM:   6    -0.146837322691E+02    0.11884E+00   -0.10864E-01    18   0.254E+00    0.656E-01
RMM:   7    -0.146772195726E+02    0.65127E-02   -0.38093E-02    18   0.137E+00    0.698E-02
RMM:   8    -0.146789170289E+02   -0.16975E-02   -0.21097E-03    18   0.385E-01    0.106E-01
RMM:   9    -0.146800565009E+02   -0.11395E-02   -0.77533E-04    16   0.171E-01    0.526E-02
RMM:  10    -0.146810984777E+02   -0.10420E-02   -0.14063E-03    18   0.265E-01    0.926E-02
RMM:  11    -0.146814370745E+02   -0.33860E-03   -0.10060E-03    18   0.239E-01    0.607E-02
RMM:  12    -0.146815796584E+02   -0.14258E-03   -0.11123E-04    13   0.922E-02    0.927E-03
RMM:  13    -0.146817289355E+02   -0.14928E-03   -0.53737E-05    13   0.592E-02    0.897E-03
RMM:  14    -0.146817918972E+02   -0.62962E-04   -0.11661E-05    13   0.319E-02
   3 F= -.14681792E+02 E0= -.14681792E+02  d E =-.407915E+02
 BRION: g(F)=  0.205E+01 g(S)=  0.000E+00 retain N=  1 mean eig= 0.02
 eig:   0.016
 bond charge predicted
       N       E                     dE             d eps       ncg     rms          rms(c)
DAV:   1    -0.147132023245E+02   -0.31473E-01   -0.13343E-01    20   0.383E+00    0.154E-01
RMM:   2    -0.147131784260E+02    0.23899E-04   -0.27944E-03    18   0.488E-01    0.739E-02
RMM:   3    -0.147130747662E+02    0.10366E-03   -0.31629E-04    16   0.143E-01    0.302E-02
RMM:   4    -0.147130658477E+02    0.89185E-05   -0.54976E-05    13   0.593E-02
   4 F= -.14713066E+02 E0= -.14713066E+02  d E =-.312740E-01
 BRION: g(F)=  0.156E+01 g(S)=  0.000E+00 retain N=  1 mean eig= 0.13
 eig:   0.126
 bond charge predicted
       N       E                     dE             d eps       ncg     rms          rms(c)
DAV:   1    -0.148018354020E+02   -0.88761E-01   -0.62190E+00    19   0.263E+01    0.117E+00
RMM:   2    -0.147998481081E+02    0.19873E-02   -0.12790E-01    18   0.344E+00    0.510E-01
RMM:   3    -0.147944451857E+02    0.54029E-02   -0.15892E-02    18   0.100E+00    0.191E-01
RMM:   4    -0.147942520583E+02    0.19313E-03   -0.24095E-03    18   0.352E-01    0.812E-02
RMM:   5    -0.147943238917E+02   -0.71833E-04   -0.55459E-05    13   0.687E-02
   5 F= -.14794324E+02 E0= -.14794324E+02  d E =-.812580E-01
 BRION: g(F)=  0.915E-01 g(S)=  0.000E+00 retain N=  1 mean eig= 0.10
 eig:   0.102
 bond charge predicted
       N       E                     dE             d eps       ncg     rms          rms(c)
DAV:   1    -0.147985975407E+02   -0.43455E-02   -0.23786E-01    20   0.518E+00    0.225E-01
RMM:   2    -0.147986313186E+02   -0.33778E-04   -0.50073E-03    18   0.669E-01    0.103E-01
RMM:   3    -0.147985796140E+02    0.51705E-04   -0.70662E-04    18   0.207E-01
   6 F= -.14798580E+02 E0= -.14798580E+02  d E =-.425572E-02
 BRION: g(F)=  0.172E-02 g(S)=  0.000E+00 retain N=  1 mean eig= 0.09
 eig:   0.089
 bond charge predicted
       N       E                     dE             d eps       ncg     rms          rms(c)
DAV:   1    -0.147987719301E+02   -0.14061E-03   -0.40614E-03    20   0.665E-01    0.264E-02
RMM:   2    -0.147987926745E+02   -0.20744E-04   -0.82980E-05    11   0.915E-02
   7 F= -.14798793E+02 E0= -.14798793E+02  d E =-.213061E-03
 BRION: g(F)=  0.128E-03 g(S)=  0.000E+00 retain N=  1 mean eig= 0.12
 eig:   0.123
 bond charge predicted
       N       E                     dE             d eps       ncg     rms          rms(c)
DAV:   1    -0.147988230891E+02   -0.51159E-04   -0.42108E-04    20   0.222E-01    0.106E-02
RMM:   2    -0.147988386231E+02   -0.15534E-04   -0.98755E-06     9   0.310E-02
   8 F= -.14798839E+02 E0= -.14798839E+02  d E =-.459486E-04
 BRION: g(F)=  0.397E-04 g(S)=  0.000E+00 retain N=  1 mean eig= 0.08
 eig:   0.079
 bond charge predicted
       N       E                     dE             d eps       ncg     rms          rms(c)
DAV:   1    -0.147988652923E+02   -0.42203E-04   -0.91686E-05    20   0.963E-02    0.383E-03
RMM:   2    -0.147988779789E+02   -0.12687E-04    0.00000E+00     6   0.131E-02
   9 F= -.14798878E+02 E0= -.14798878E+02  d E =-.393559E-04
 BRION: g(F)=  0.194E-04 g(S)=  0.000E+00 retain N=  1 mean eig= 0.26
 eig:   0.262
 bond charge predicted
       N       E                     dE             d eps       ncg     rms          rms(c)
DAV:   1    -0.147989063500E+02   -0.41058E-04   -0.31767E-04    20   0.190E-01    0.697E-03
RMM:   2    -0.147989138529E+02   -0.75029E-05   -0.64018E-06     9   0.254E-02
  10 F= -.14798914E+02 E0= -.14798914E+02  d E =-.358740E-04
 BRION: g(F)=  0.640E-04 g(S)=  0.000E+00 retain N=  1 mean eig= 0.09
 eig:   0.093
 bond charge predicted
       N       E                     dE             d eps       ncg     rms          rms(c)
DAV:   1    -0.147989263755E+02   -0.20026E-04   -0.15650E-04    20   0.131E-01    0.512E-03
RMM:   2    -0.147989304159E+02   -0.40404E-05   -0.24815E-06     9   0.168E-02
  11 F= -.14798930E+02 E0= -.14798930E+02  d E =-.165630E-04
 BRION: g(F)=  0.347E-05 g(S)=  0.000E+00 retain N=  1 mean eig= 0.12
 eig:   0.121
 reached required accuracy - stopping structural energy minimisation
 running on    1 total cores
 distrk:  each k-point on    1 cores,    1 groups
 distr:  one band on    1 cores,    1 groups
 using from now: INCAR     
 vasp.5.3.3 18Dez12 (build Sep  7 2015 22:32:56) complex                        
  
 POSCAR found :  2 types and       2 ions
 LDA part: xc-table for Pade appr. of Perdew
 POSCAR, INCAR and KPOINTS ok, starting setup
 WARNING: small aliasing (wrap around) errors must be expected
 FFT: planning ...
 WAVECAR not read
 WARNING: random wavefunctions but no delay for mixing, default for NELMDL
 entering main loop
       N       E                     dE             d eps       ncg     rms          rms(c)
DAV:   1     0.790394779508E+02    0.79039E+02   -0.19218E+03    18   0.462E+02
DAV:   2     0.172341353742E+01   -0.77316E+02   -0.77084E+02    34   0.118E+02
DAV:   3    -0.150623054843E+02   -0.16786E+02   -0.16781E+02    35   0.747E+01
DAV:   4    -0.152967376369E+02   -0.23443E+00   -0.23443E+00    20   0.892E+00
DAV:   5    -0.152985691982E+02   -0.18316E-02   -0.18316E-02    27   0.883E-01    0.636E+00
RMM:   6    -0.147941757677E+02    0.50439E+00   -0.16233E+00    18   0.103E+01    0.352E+00
RMM:   7    -0.146692814307E+02    0.12489E+00   -0.17984E-01    18   0.314E+00    0.195E+00
RMM:   8    -0.146369824576E+02    0.32299E-01   -0.13248E-01    18   0.252E+00    0.353E-01
RMM:   9    -0.146363927141E+02    0.58974E-03   -0.51691E-03    18   0.571E-01    0.155E-01
RMM:  10    -0.146369784694E+02   -0.58576E-03   -0.15112E-03    18   0.344E-01    0.354E-02
RMM:  11    -0.146385171716E+02   -0.15387E-02   -0.71707E-04    17   0.163E-01    0.391E-02
RMM:  12    -0.146390389004E+02   -0.52173E-03   -0.18934E-04    14   0.993E-02    0.125E-02
RMM:  13    -0.146400424309E+02   -0.10035E-02   -0.15368E-04    14   0.676E-02    0.150E-02
RMM:  14    -0.146400946710E+02   -0.52240E-04   -0.21643E-05    12   0.314E-02
   1 F= -.14640095E+02 E0= -.14640095E+02  d E =-.146401E+02
 BRION: g(F)=  0.267E+01 g(S)=  0.000E+00
 bond charge predicted
       N       E                     dE             d eps       ncg     rms          rms(c)
DAV:   1     0.227905938358E+02    0.37431E+02   -0.76592E+02    18   0.294E+02    0.257E+01
RMM:   2     0.243673466366E+02    0.15768E+01   -0.25160E+01    18   0.541E+01    0.314E+01
RMM:   3     0.214809441214E+02   -0.28864E+01   -0.38080E+00    18   0.180E+01    0.492E+01
RMM:   4     0.261151537327E+02    0.46342E+01   -0.15585E+01    18   0.336E+01    0.690E+00
RMM:   5     0.261262176428E+02    0.11064E-01   -0.25129E-01    18   0.387E+00    0.366E+00
RMM:   6     0.261218257576E+02   -0.43919E-02   -0.21385E-02    19   0.109E+00    0.199E+00
RMM:   7     0.261171327668E+02   -0.46930E-02   -0.86305E-03    18   0.918E-01    0.268E-01
RMM:   8     0.261170034845E+02   -0.12928E-03   -0.15181E-03    18   0.300E-01    0.539E-02
RMM:   9     0.261133464210E+02   -0.36571E-02   -0.43621E-03    18   0.425E-01    0.263E-01
RMM:  10     0.261120824977E+02   -0.12639E-02   -0.17681E-03    18   0.308E-01    0.102E-01
RMM:  11     0.261103407686E+02   -0.17417E-02   -0.51036E-04    15   0.156E-01    0.221E-02
RMM:  12     0.261100182184E+02   -0.32255E-03   -0.11172E-04    13   0.800E-02    0.174E-02
RMM:  13     0.261098539646E+02   -0.16425E-03   -0.18859E-05    12   0.305E-02    0.144E-02
RMM:  14     0.261096932765E+02   -0.16069E-03   -0.19485E-05    12   0.263E-02    0.521E-03
RMM:  15     0.261096639435E+02   -0.29333E-04   -0.80724E-06    12   0.217E-02
   2 F= 0.26109664E+02 E0= 0.26109664E+02  d E =0.407498E+02
 BRION: g(F)=  0.944E+04 g(S)=  0.000E+00 retain N=  1 mean eig= 0.02
 eig:   0.017
 bond charge predicted
       N       E                     dE             d eps       ncg     rms          rms(c)
DAV:   1    -0.192695305755E+02   -0.45379E+02   -0.74419E+02    18   0.293E+02    0.366E+01
RMM:   2    -0.156534901170E+02    0.36160E+01   -0.19204E+01    18   0.400E+01    0.214E+01
RMM:   3    -0.147200833161E+02    0.93341E+00   -0.67570E+00    18   0.186E+01    0.455E+00
RMM:   4    -0.147485040250E+02   -0.28421E-01   -0.37909E-01    20   0.427E+00    0.144E+00
RMM:   5    -0.148025696156E+02   -0.54066E-01   -0.14971E+00    18   0.738E+00    0.194E+00
RMM:   6    -0.146837322691E+02    0.11884E+00   -0.10864E-01    18   0.254E+00    0.656E-01
RMM:   7    -0.146772195726E+02    0.65127E-02   -0.38093E-02    18   0.137E+00    0.698E-02
RMM:   8    -0.146789170289E+02   -0.16975E-02   -0.21097E-03    18   0.385E-01    0.106E-01
RMM:   9    -0.146800565009E+02   -0.11395E-02   -0.77533E-04    16   0.171E-01    0.526E-02
RMM:  10    -0.146810984777E+02   -0.10420E-02   -0.14063E-03    18   0.265E-01    0.926E-02
RMM:  11    -0.146814370745E+02   -0.33860E-03   -0.10060E-03    18   0.239E-01    0.607E-02
RMM:  12    -0.146815796584E+02   -0.14258E-03   -0.11123E-04    13   0.922E-02    0.927E-03
RMM:  13    -0.146817289355E+02   -0.14928E-03   -0.53737E-05    13   0.592E-02    0.897E-03
RMM:  14    -0.146817918972E+02   -0.62962E-04   -0.11661E-05    13   0.319E-02
   3 F= -.14681792E+02 E0= -.14681792E+02  d E =-.407915E+02
 BRION: g(F)=  0.205E+01 g(S)=  0.000E+00 retain N=  1 mean eig= 0.02
 eig:   0.016
 bond charge predicted
       N       E                     dE             d eps       ncg     rms          rms(c)
DAV:   1    -0.147132023245E+02   -0.31473E-01   -0.13343E-01    20   0.383E+00    0.154E-01
RMM:   2    -0.147131784260E+02    0.23899E-04   -0.27944E-03    18   0.488E-01    0.739E-02
RMM:   3    -0.147130747662E+02    0.10366E-03   -0.31629E-04    16   0.143E-01    0.302E-02
RMM:   4    -0.147130658477E+02    0.89185E-05   -0.54976E-05    13   0.593E-02
 running on    1 total cores
 distrk:  each k-point on    1 cores,    1 groups
 distr:  one band on    1 cores,    1 groups
 using from now: INCAR     
 vasp.5.3.3 18Dez12 (build Sep  7 2015 22:32:56) complex                        
  
 POSCAR found :  2 types and       2 ions
 LDA part: xc-table for Pade appr. of Perdew
 POSCAR, INCAR and KPOINTS ok, starting setup
 WARNING: small aliasing (wrap around) errors must be expected
 FFT: planning ...
 WAVECAR not read
 WARNING: random wavefunctions but no delay for mixing, default for NELMDL
 entering main loop
       N       E                     dE             d eps       ncg     rms          rms(c)
DAV:   1     0.790394779508E+02    0.79039E+02   -0.19218E+03    18   0.462E+02
DAV:   2     0.172341353742E+01   -0.77316E+02   -0.77084E+02    34   0.118E+02
DAV:   3    -0.150623054843E+02   -0.16786E+02   -0.16781E+02    35   0.747E+01
DAV:   4    -0.152967376369E+02   -0.23443E+00   -0.23443E+00    20   0.892E+00
DAV:   5    -0.152985691982E+02   -0.18316E-02   -0.18316E-02    27   0.883E-01    0.636E+00
RMM:   6    -0.147941757677E+02    0.50439E+00   -0.16233E+00    21   0.103E+01    0.352E+00
RMM:   7    -0.146692833435E+02    0.12489E+00   -0.17842E-01    22   0.314E+00    0.195E+00
RMM:   8    -0.146369710972E+02    0.32312E-01   -0.13226E-01    23   0.251E+00    0.353E-01
RMM:   9    -0.146363869809E+02    0.58412E-03   -0.51582E-03    21   0.570E-01    0.154E-01
RMM:  10    -0.146369796204E+02   -0.59264E-03   -0.15121E-03    22   0.343E-01    0.354E-02
RMM:  11    -0.146385142797E+02   -0.15347E-02   -0.71811E-04    18   0.163E-01    0.395E-02
RMM:  12    -0.146390384599E+02   -0.52418E-03   -0.19074E-04    17   0.992E-02    0.125E-02
RMM:  13    -0.146400429940E+02   -0.10045E-02   -0.15404E-04    18   0.678E-02    0.151E-02
RMM:  14    -0.146400954242E+02   -0.52430E-04   -0.21785E-05    15   0.314E-02
   1 F= -.14640095E+02 E0= -.14640095E+02  d E =-.948091E-12
 running on    1 total cores
 distrk:  each k-point on    1 cores,    1 groups
 distr:  one band on    1 cores,    1 groups
 using from now: INCAR     
 vasp.5.3.3 18Dez12 (build Sep  7 2015 22:32:56) complex                        
  
 POSCAR found :  2 types and       2 ions
 LDA part: xc-table for Pade appr. of Perdew
 POSCAR, INCAR and KPOINTS ok, starting setup
 WARNING: small aliasing (wrap around) errors must be expected
 FFT: planning ...
 WAVECAR not read
 WARNING: random wavefunctions but no delay for mixing, default for NELMDL
 entering main loop
       N       E                     dE             d eps       ncg     rms          rms(c)
DAV:   1     0.732576035592E+02    0.73258E+02   -0.18530E+03    18   0.461E+02
DAV:   2     0.201439794951E+01   -0.71243E+02   -0.71040E+02    34   0.112E+02
DAV:   3    -0.129601200107E+02   -0.14975E+02   -0.14974E+02    27   0.692E+01
DAV:   4    -0.133655133770E+02   -0.40539E+00   -0.40539E+00    28   0.110E+01
DAV:   5    -0.133661484555E+02   -0.63508E-03   -0.63507E-03    28   0.496E-01    0.618E+00
RMM:   6    -0.131345665299E+02    0.23158E+00   -0.35373E+00    20   0.128E+01    0.575E+00
RMM:   7    -0.127004682088E+02    0.43410E+00   -0.56849E-01    22   0.587E+00    0.186E+00
RMM:   8    -0.126702765818E+02    0.30192E-01   -0.72242E-02    21   0.203E+00    0.143E-01
RMM:   9    -0.126714632711E+02   -0.11867E-02   -0.55256E-03    25   0.439E-01    0.124E-01
RMM:  10    -0.126738892951E+02   -0.24260E-02   -0.48467E-03    18   0.411E-01    0.191E-01
RMM:  11    -0.126735905250E+02    0.29877E-03   -0.26752E-04    18   0.135E-01    0.839E-02
RMM:  12    -0.126755757817E+02   -0.19853E-02   -0.19341E-03    20   0.275E-01    0.776E-02
RMM:  13    -0.126756854726E+02   -0.10969E-03   -0.76158E-05    16   0.705E-02    0.306E-02
RMM:  14    -0.126764414289E+02   -0.75596E-03   -0.20099E-04    18   0.847E-02    0.132E-02
RMM:  15    -0.126765430539E+02   -0.10162E-03   -0.16016E-05    14   0.302E-02    0.366E-03
RMM:  16    -0.126767237706E+02   -0.18072E-03   -0.13266E-05     9   0.215E-02    0.353E-03
RMM:  17    -0.126767485965E+02   -0.24826E-04   -0.25411E-06    10   0.169E-02
   1 F= -.12676749E+02 E0= -.12676749E+02  d E =-.531592E-11
 running on    1 total cores
 distrk:  each k-point on    1 cores,    1 groups
 distr:  one band on    1 cores,    1 groups
 using from now: INCAR     
 vasp.5.3.3 18Dez12 (build Sep  7 2015 22:32:56) complex                        
  
 POSCAR found :  2 types and       2 ions
 LDA part: xc-table for Pade appr. of Perdew
 POSCAR, INCAR and KPOINTS ok, starting setup
 WARNING: small aliasing (wrap around) errors must be expected
 FFT: planning ...
 WAVECAR not read
 WARNING: random wavefunctions but no delay for mixing, default for NELMDL
 entering main loop
       N       E                     dE             d eps       ncg     rms          rms(c)
DAV:   1     0.462435199459E+02    0.46244E+02   -0.20578E+03    26   0.460E+02
DAV:   2    -0.560332787468E+01   -0.51847E+02   -0.51754E+02    35   0.124E+02
DAV:   3    -0.113494042952E+02   -0.57461E+01   -0.57458E+01    28   0.473E+01
DAV:   4    -0.113838818472E+02   -0.34478E-01   -0.34419E-01    20   0.372E+00
DAV:   5    -0.113845239091E+02   -0.64206E-03   -0.64205E-03    35   0.467E-01    0.755E+00
RMM:   6    -0.123896216036E+02   -0.10051E+01   -0.55915E+00    20   0.140E+01    0.141E+01
RMM:   7    -0.102737430557E+02    0.21159E+01   -0.21708E+00    19   0.104E+01    0.230E+00
RMM:   8    -0.102000942522E+02    0.73649E-01   -0.42319E-02    22   0.187E+00    0.682E-01
RMM:   9    -0.101964299542E+02    0.36643E-02   -0.98270E-03    22   0.102E+00    0.365E-01
RMM:  10    -0.101990158581E+02   -0.25859E-02   -0.84631E-03    20   0.624E-01    0.305E-01
RMM:  11    -0.101989050359E+02    0.11082E-03   -0.13526E-03    20   0.262E-01    0.421E-02
RMM:  12    -0.102019360041E+02   -0.30310E-02   -0.11000E-03    18   0.241E-01    0.143E-01
RMM:  13    -0.102027763497E+02   -0.84035E-03   -0.10288E-03    21   0.187E-01    0.957E-02
RMM:  14    -0.102038632121E+02   -0.10869E-02   -0.32158E-04    20   0.114E-01    0.168E-02
RMM:  15    -0.102040671946E+02   -0.20398E-03   -0.29396E-05    15   0.389E-02    0.207E-02
RMM:  16    -0.102042994934E+02   -0.23230E-03   -0.20922E-05    14   0.305E-02    0.621E-03
RMM:  17    -0.102043646449E+02   -0.65151E-04   -0.57185E-06    13   0.187E-02
   1 F= -.10204365E+02 E0= -.10204365E+02  d E =-.374987E-10
 running on    1 total cores
 distrk:  each k-point on    1 cores,    1 groups
 distr:  one band on    1 cores,    1 groups
 using from now: INCAR     
 vasp.5.3.3 18Dez12 (build Sep  7 2015 22:32:56) complex                        
  
 POSCAR found :  2 types and       2 ions
 LDA part: xc-table for Pade appr. of Perdew
 POSCAR, INCAR and KPOINTS ok, starting setup
 WARNING: small aliasing (wrap around) errors must be expected
 FFT: planning ...
 WAVECAR not read
 WARNING: random wavefunctions but no delay for mixing, default for NELMDL
 entering main loop
       N       E                     dE             d eps       ncg     rms          rms(c)
DAV:   1     0.486415516195E+02    0.48642E+02   -0.20004E+03    26   0.459E+02
DAV:   2    -0.330640801528E+01   -0.51948E+02   -0.51406E+02    35   0.117E+02
DAV:   3    -0.986787587526E+01   -0.65615E+01   -0.65612E+01    28   0.501E+01
DAV:   4    -0.992001238892E+01   -0.52137E-01   -0.52136E-01    18   0.441E+00
DAV:   5    -0.992104401269E+01   -0.10316E-02   -0.10316E-02    34   0.502E-01    0.926E+00
RMM:   6    -0.150787202705E+02   -0.51577E+01   -0.70551E+00    20   0.152E+01    0.254E+01
RMM:   7    -0.822886741839E+01    0.68499E+01   -0.41439E+00    20   0.145E+01    0.346E+00
RMM:   8    -0.814014480597E+01    0.88723E-01   -0.64425E-02    20   0.195E+00    0.263E+00
RMM:   9    -0.810104463330E+01    0.39100E-01   -0.12329E-01    20   0.226E+00    0.348E+00
RMM:  10    -0.800514734753E+01    0.95897E-01   -0.10488E-01    19   0.237E+00    0.789E-01
RMM:  11    -0.802134757947E+01   -0.16200E-01   -0.92378E-03    20   0.680E-01    0.136E+00
RMM:  12    -0.800289483410E+01    0.18453E-01   -0.17161E-02    19   0.953E-01    0.144E-01
RMM:  13    -0.800575887688E+01   -0.28640E-02   -0.17464E-03    21   0.239E-01    0.240E-01
RMM:  14    -0.800909352741E+01   -0.33347E-02   -0.22168E-03    20   0.337E-01    0.265E-01
RMM:  15    -0.800903053452E+01    0.62993E-04   -0.41624E-04    18   0.142E-01
   1 F= -.80090305E+01 E0= -.80090305E+01  d E =-.258169E-11
 running on    1 total cores
 distrk:  each k-point on    1 cores,    1 groups
 distr:  one band on    1 cores,    1 groups
 using from now: INCAR     
 vasp.5.3.3 18Dez12 (build Sep  7 2015 22:32:56) complex                        
  
 POSCAR found :  2 types and       2 ions
 LDA part: xc-table for Pade appr. of Perdew
 POSCAR, INCAR and KPOINTS ok, starting setup
 WARNING: small aliasing (wrap around) errors must be expected
 FFT: planning ...
 WAVECAR not read
 WARNING: random wavefunctions but no delay for mixing, default for NELMDL
 entering main loop
       N       E                     dE             d eps       ncg     rms          rms(c)
DAV:   1     0.510803777818E+02    0.51080E+02   -0.19585E+03    26   0.459E+02
DAV:   2    -0.125183632660E+01   -0.52332E+02   -0.51839E+02    35   0.109E+02
DAV:   3    -0.888143462170E+01   -0.76296E+01   -0.76291E+01    27   0.540E+01
DAV:   4    -0.895879437297E+01   -0.77360E-01   -0.77359E-01    26   0.518E+00
DAV:   5    -0.895901317966E+01   -0.21881E-03   -0.21881E-03    26   0.279E-01    0.108E+01
RMM:   6    -0.202893799954E+02   -0.11330E+02   -0.10305E+01    20   0.178E+01    0.315E+01
RMM:   7    -0.651471696675E+01    0.13775E+02   -0.59724E+00    20   0.173E+01    0.391E+00
RMM:   8    -0.654561875914E+01   -0.30902E-01   -0.12321E-01    22   0.225E+00    0.419E+00
RMM:   9    -0.771487448980E+01   -0.11693E+01   -0.54469E-01    20   0.444E+00    0.160E+01
RMM:  10    -0.665671326237E+01    0.10582E+01   -0.55777E-02    19   0.200E+00    0.931E+00
RMM:  11    -0.631882068876E+01    0.33789E+00   -0.10761E-01    18   0.235E+00    0.486E+00
RMM:  12    -0.623621616059E+01    0.82605E-01   -0.65019E-02    19   0.184E+00    0.254E+00
RMM:  13    -0.621720236366E+01    0.19014E-01   -0.17727E-02    19   0.907E-01    0.111E+00
RMM:  14    -0.621476055227E+01    0.24418E-02   -0.19972E-02    19   0.103E+00    0.171E-01
RMM:  15    -0.621822522564E+01   -0.34647E-02   -0.46437E-03    19   0.513E-01    0.120E-01
RMM:  16    -0.622053289165E+01   -0.23077E-02   -0.17685E-03    19   0.293E-01    0.261E-01
RMM:  17    -0.622270633176E+01   -0.21734E-02   -0.63735E-04    19   0.219E-01    0.476E-01
RMM:  18    -0.622144642189E+01    0.12599E-02   -0.13958E-03    19   0.270E-01    0.148E-01
RMM:  19    -0.622174282289E+01   -0.29640E-03   -0.32642E-04    17   0.111E-01    0.751E-02
RMM:  20    -0.622192561686E+01   -0.18279E-03   -0.36709E-05    11   0.539E-02    0.840E-02
RMM:  21    -0.622197638173E+01   -0.50765E-04   -0.40735E-05    11   0.521E-02
   1 F= -.62219764E+01 E0= -.62219764E+01  d E =-.590350E-08
