<?xml version="1.0" encoding="ISO-8859-1"?>
<modeling>
 <generator>
  <i name="program" type="string">vasp </i>
  <i name="version" type="string">5.3.3  </i>
  <i name="subversion" type="string">18Dez12 (build Sep  7 2015 22:32:56) complex                          parallel </i>
  <i name="platform" type="string">LinuxIFC </i>
  <i name="date" type="string">2002 02 26 </i>
  <i name="time" type="string">00:56:11 </i>
 </generator>
 <incar>
  <i type="string" name="SYSTEM"> Hello World</i>
  <i type="string" name="PREC">normal</i>
  <i type="string" name="ALGO"> fast    ! algorithm for electronic opti</i>
  <i type="int" name="IBRION">     1</i>
  <i name="EDIFF">      0.00000100</i>
  <i name="EDIFFG">     -0.00500000</i>
  <i type="int" name="NSW">   100</i>
  <i name="ENCUT">    400.00000000</i>
  <i type="int" name="ISMEAR">     0</i>
  <i type="logical" name="LWAVE"> F  </i>
  <i type="logical" name="LCHARG"> F  </i>
 </incar>
 <kpoints>
  <generation param="Monkhorst-Pack">
   <v type="int" name="divisions">       1        1        1 </v>
   <v name="usershift">      0.00000000       0.00000000       0.00000000 </v>
   <v name="genvec1">      1.00000000       0.00000000       0.00000000 </v>
   <v name="genvec2">      0.00000000       1.00000000       0.00000000 </v>
   <v name="genvec3">      0.00000000       0.00000000       1.00000000 </v>
   <v name="shift">      0.00000000       0.00000000       0.00000000 </v>
  </generation>
  <varray name="kpointlist" >
   <v>       0.00000000       0.00000000       0.00000000 </v>
  </varray>
  <varray name="weights" >
   <v>       1.00000000 </v>
  </varray>
 </kpoints>
 <parameters>
  <separator name="general" >
   <i type="string" name="SYSTEM">Hello World</i>
   <i type="logical" name="LCOMPAT"> F  </i>
  </separator>
  <separator name="electronic" >
   <i type="string" name="PREC">normal</i>
   <i name="ENMAX">    400.00000000</i>
   <i name="ENAUG">    644.87300000</i>
   <i name="EDIFF">      0.00000100</i>
   <i type="int" name="IALGO">    68</i>
   <i type="int" name="IWAVPR">    11</i>
   <i type="int" name="NBANDS">    12</i>
   <i name="NELECT">     16.00000000</i>
   <i type="int" name="TURBO">     0</i>
   <i type="int" name="IRESTART">     0</i>
   <i type="int" name="NREBOOT">     0</i>
   <i type="int" name="NMIN">     0</i>
   <i name="EREF">      0.00000000</i>
   <separator name="electronic smearing" >
    <i type="int" name="ISMEAR">     0</i>
    <i name="SIGMA">      0.20000000</i>
    <i name="KSPACING">      0.50000000</i>
    <i type="logical" name="KGAMMA"> T  </i>
   </separator>
   <separator name="electronic projectors" >
    <i type="logical" name="LREAL"> F  </i>
    <v name="ROPT">      0.00000000      0.00000000</v>
    <i type="int" name="LMAXPAW">  -100</i>
    <i type="int" name="LMAXMIX">     2</i>
    <i type="logical" name="NLSPLINE"> F  </i>
   </separator>
   <separator name="electronic startup" >
    <i type="int" name="ISTART">     0</i>
    <i type="int" name="ICHARG">     2</i>
    <i type="int" name="INIWAV">     1</i>
   </separator>
   <separator name="electronic spin" >
    <i type="int" name="ISPIN">     1</i>
    <i type="logical" name="LNONCOLLINEAR"> F  </i>
    <v name="MAGMOM">      1.00000000      1.00000000      1.00000000</v>
    <i name="NUPDOWN">     -1.00000000</i>
    <i type="logical" name="LSORBIT"> F  </i>
    <v name="SAXIS">      0.00000000      0.00000000      1.00000000</v>
    <i type="logical" name="LSPIRAL"> F  </i>
    <v name="QSPIRAL">      0.00000000      0.00000000      0.00000000</v>
    <i type="logical" name="LZEROZ"> F  </i>
   </separator>
   <separator name="electronic exchange-correlation" >
    <i type="logical" name="LASPH"> F  </i>
    <i type="logical" name="LMETAGGA"> F  </i>
   </separator>
   <separator name="electronic convergence" >
    <i type="int" name="NELM">    60</i>
    <i type="int" name="NELMDL">     0</i>
    <i type="int" name="NELMIN">     2</i>
    <i name="ENINI">    400.00000000</i>
    <separator name="electronic convergence detail" >
     <i type="logical" name="LDIAG"> T  </i>
     <i type="logical" name="LSUBROT"> T  </i>
     <i name="WEIMIN">      0.00100000</i>
     <i name="EBREAK">      0.00000002</i>
     <i name="DEPER">      0.30000000</i>
     <i type="int" name="NRMM">     4</i>
     <i name="TIME">      0.40000000</i>
    </separator>
   </separator>
   <separator name="electronic mixer" >
    <i name="AMIX">      0.40000000</i>
    <i name="BMIX">      1.00000000</i>
    <i name="AMIN">      0.10000000</i>
    <i name="AMIX_MAG">      1.60000000</i>
    <i name="BMIX_MAG">      1.00000000</i>
    <separator name="electronic mixer details" >
     <i type="int" name="IMIX">     4</i>
     <i type="int" name="MAXMIX">   -45</i>
     <i name="WC">    100.00000000</i>
     <i type="int" name="INIMIX">     1</i>
     <i type="int" name="MIXPRE">     1</i>
     <i type="int" name="MREMOVE">     5</i>
    </separator>
   </separator>
   <separator name="electronic dipolcorrection" >
    <i type="logical" name="LDIPOL"> F  </i>
    <i type="logical" name="LMONO"> F  </i>
    <i type="int" name="IDIPOL">     0</i>
    <i name="EPSILON">      1.00000000</i>
    <v name="DIPOL">   -100.00000000   -100.00000000   -100.00000000</v>
    <i name="EFIELD">      0.00000000</i>
   </separator>
  </separator>
  <separator name="grids" >
   <i type="int" name="NGX">    40</i>
   <i type="int" name="NGY">    40</i>
   <i type="int" name="NGZ">    40</i>
   <i type="int" name="NGXF">    80</i>
   <i type="int" name="NGYF">    80</i>
   <i type="int" name="NGZF">    80</i>
   <i type="logical" name="ADDGRID"> F  </i>
  </separator>
  <separator name="ionic" >
   <i type="int" name="NSW">   100</i>
   <i type="int" name="IBRION">     1</i>
   <i type="int" name="ISIF">     2</i>
   <i name="PSTRESS">      0.00000000</i>
   <i name="EDIFFG">     -0.00500000</i>
   <i type="int" name="NFREE">     0</i>
   <i name="POTIM">      0.50000000</i>
   <i name="SMASS">     -3.00000000</i>
   <i name="SCALEE">      1.00000000</i>
  </separator>
  <separator name="ionic md" >
   <i name="TEBEG">      0.00010000</i>
   <i name="TEEND">      0.00010000</i>
   <i type="int" name="NBLOCK">     1</i>
   <i type="int" name="KBLOCK">   100</i>
   <i type="int" name="NPACO">   256</i>
   <i name="APACO">     16.00000000</i>
  </separator>
  <separator name="symmetry" >
   <i type="int" name="ISYM">     2</i>
   <i name="SYMPREC">      0.00001000</i>
  </separator>
  <separator name="dos" >
   <i type="logical" name="LORBIT"> F  </i>
   <v name="RWIGS">     -1.00000000     -1.00000000</v>
   <i type="int" name="NEDOS">   301</i>
   <i name="EMIN">     10.00000000</i>
   <i name="EMAX">    -10.00000000</i>
   <i name="EFERMI">      0.00000000</i>
  </separator>
  <separator name="writing" >
   <i type="int" name="NWRITE">     2</i>
   <i type="logical" name="LWAVE"> F  </i>
   <i type="logical" name="LCHARG"> F  </i>
   <i type="logical" name="LPARD"> F  </i>
   <i type="logical" name="LVTOT"> F  </i>
   <i type="logical" name="LVHAR"> F  </i>
   <i type="logical" name="LELF"> F  </i>
   <i type="logical" name="LOPTICS"> F  </i>
   <v name="STM">      0.00000000      0.00000000      0.00000000      0.00000000      0.00000000      0.00000000      0.00000000</v>
  </separator>
  <separator name="performance" >
   <i type="int" name="NPAR">     1</i>
   <i type="int" name="NSIM">     4</i>
   <i type="int" name="NBLK">    -1</i>
   <i type="logical" name="LPLANE"> T  </i>
   <i type="logical" name="LSCALAPACK"> F  </i>
   <i type="logical" name="LSCAAWARE"> F  </i>
   <i type="logical" name="LSCALU"> F  </i>
   <i type="logical" name="LASYNC"> F  </i>
   <i type="logical" name="LORBITALREAL"> F  </i>
  </separator>
  <separator name="miscellaneous" >
   <i type="int" name="IDIOT">     3</i>
   <i type="logical" name="LMUSIC"> F  </i>
   <v name="POMASS">     16.00000000     12.01100000</v>
   <v name="DARWINR">      0.00000000      0.00000000</v>
   <v name="DARWINV">      1.00000000      1.00000000</v>
   <i type="logical" name="LCORR"> T  </i>
  </separator>
  <i type="logical" name="GGA_COMPAT"> T  </i>
  <i type="logical" name="LBERRY"> F  </i>
  <i type="int" name="ICORELEVEL">     0</i>
  <i type="logical" name="LDAU"> F  </i>
  <i type="int" name="I_CONSTRAINED_M">     0</i>
  <separator name="electronic exchange-correlation" >
   <i type="string" name="GGA">--</i>
   <i type="int" name="VOSKOWN">     0</i>
   <i type="logical" name="LHFCALC"> F  </i>
   <i type="string" name="PRECFOCK"></i>
   <i type="logical" name="LSYMGRAD"> F  </i>
   <i type="logical" name="LHFONE"> F  </i>
   <i type="logical" name="LRHFCALC"> F  </i>
   <i type="logical" name="LTHOMAS"> F  </i>
   <i type="logical" name="LMODELHF"> F  </i>
   <i name="ENCUT4O">     -1.00000000</i>
   <i type="int" name="EXXOEP">     0</i>
   <i type="int" name="FOURORBIT">     0</i>
   <i name="AEXX">      0.00000000</i>
   <i name="HFALPHA">      0.00000000</i>
   <i name="MCALPHA">      0.00000000</i>
   <i name="ALDAX">      1.00000000</i>
   <i name="AGGAX">      1.00000000</i>
   <i name="ALDAC">      1.00000000</i>
   <i name="AGGAC">      1.00000000</i>
   <i type="int" name="NKREDX">     1</i>
   <i type="int" name="NKREDY">     1</i>
   <i type="int" name="NKREDZ">     1</i>
   <i type="logical" name="SHIFTRED"> F  </i>
   <i type="logical" name="ODDONLY"> F  </i>
   <i type="logical" name="EVENONLY"> F  </i>
   <i type="int" name="LMAXFOCK">     0</i>
   <i type="int" name="NMAXFOCKAE">     0</i>
   <i type="logical" name="LFOCKAEDFT"> F  </i>
   <i name="HFSCREEN">      0.00000000</i>
   <i name="HFSCREENC">      0.00000000</i>
   <i type="int" name="NBANDSGWLOW">     0</i>
  </separator>
  <separator name="vdW DFT" >
   <i type="logical" name="LUSE_VDW"> F  </i>
   <i name="Zab_VDW">     -0.84910000</i>
   <i name="PARAM1">      0.12340000</i>
   <i name="PARAM2">      1.00000000</i>
   <i name="PARAM3">      0.00000000</i>
  </separator>
  <separator name="model GW" >
   <i type="int" name="MODEL_GW">     0</i>
   <i name="MODEL_EPS0">    102.40000000</i>
   <i name="MODEL_ALPHA">      1.00000000</i>
  </separator>
  <separator name="linear response parameters" >
   <i type="logical" name="LEPSILON"> F  </i>
   <i type="logical" name="LRPA"> F  </i>
   <i type="logical" name="LNABLA"> F  </i>
   <i type="logical" name="LVEL"> F  </i>
   <i type="int" name="KINTER">     0</i>
   <i name="CSHIFT">      0.10000000</i>
   <i name="OMEGAMAX">     -1.00000000</i>
   <i name="DEG_THRESHOLD">      0.00200000</i>
  </separator>
  <separator name="orbital magnetization" >
   <i type="logical" name="NUCIND"> F  </i>
   <v name="MAGPOS">      0.00000000      0.00000000      0.00000000</v>
   <i type="logical" name="LNICSALL"> T  </i>
   <i type="logical" name="ORBITALMAG"> F  </i>
   <i type="logical" name="LMAGBLOCH"> F  </i>
   <i type="logical" name="LCHIMAG"> F  </i>
   <i type="logical" name="LGAUGE"> T  </i>
   <i type="int" name="MAGATOM">     0</i>
   <v name="MAGDIPOL">      0.00000000      0.00000000      0.00000000</v>
   <v name="AVECCONST">      0.00000000      0.00000000      0.00000000</v>
  </separator>
  <separator name="response functions" >
   <i type="logical" name="LADDER"> F  </i>
   <i type="logical" name="LFXC"> F  </i>
   <i type="logical" name="LHARTREE"> T  </i>
   <i type="int" name="IBSE">     0</i>
   <i type="logical" name="LTCTE"> F  </i>
   <i type="logical" name="LTETE"> F  </i>
   <i type="logical" name="LTRIPLET"> F  </i>
   <i type="logical" name="LFXCEPS"> F  </i>
   <i type="logical" name="L2ORDER"> F  </i>
   <i type="logical" name="LUSEW"> F  </i>
   <i name="ENCUTGW">     -2.00000000</i>
   <i name="ENCUTGWSOFT">     -2.00000000</i>
   <i name="ENCUTLF">     -1.00000000</i>
   <i type="int" name="LMAXMP2">    -1</i>
   <i name="SCISSOR">      0.00000000</i>
   <i type="int" name="NOMEGA">     0</i>
   <i type="int" name="NOMEGAR">     0</i>
   <i type="int" name="NBANDSGW">    -1</i>
   <i type="int" name="NBANDSO">    -1</i>
   <i type="int" name="NBANDSV">    -1</i>
   <i type="int" name="NELM">     1</i>
   <i type="int" name="DIM">     3</i>
   <i type="int" name="ANTIRES">     0</i>
   <i name="OMEGAMAX">    -30.00000000</i>
   <i name="OMEGATL">   -200.00000000</i>
   <i type="int" name="OMEGAGRID">     0</i>
   <i name="CSHIFT">     -0.10000000</i>
   <i type="logical" name="SELFENERGY"> F  </i>
   <i type="logical" name="LSPECTRAL"> F  </i>
   <i type="logical" name="ODDONLYGW"> F  </i>
   <i type="logical" name="EVENONLYGW"> F  </i>
   <i type="int" name="NKREDLFX">     1</i>
   <i type="int" name="NKREDLFY">     1</i>
   <i type="int" name="NKREDLFZ">     1</i>
   <i type="int" name="MAXMEM">  1800</i>
   <i type="int" name="TELESCOPE">     0</i>
  </separator>
 </parameters>
 <atominfo>
  <atoms>       3 </atoms>
  <types>       2 </types>
  <array name="atoms" >
   <dimension dim="1">ion</dimension>
   <field type="string">element</field>
   <field type="int">atomtype</field>
   <set>
    <rc><c>O </c><c>   1</c></rc>
    <rc><c>O </c><c>   1</c></rc>
    <rc><c>C </c><c>   2</c></rc>
   </set>
  </array>
  <array name="atomtypes" >
   <dimension dim="1">type</dimension>
   <field type="int">atomspertype</field>
   <field type="string">element</field>
   <field>mass</field>
   <field>valence</field>
   <field type="string">pseudopotential</field>
   <set>
    <rc><c>   2</c><c>O </c><c>     16.00000000</c><c>      6.00000000</c><c> PAW_RPBE O 08Apr2002                   </c></rc>
    <rc><c>   1</c><c>C </c><c>     12.01100000</c><c>      4.00000000</c><c> PAW_RPBE C 08Apr2002                   </c></rc>
   </set>
  </array>
 </atominfo>
 <structure name="initialpos" >
  <crystal>
   <varray name="basis" >
    <v>       8.00000000       0.00000000       0.00000000 </v>
    <v>       0.00000000       8.00000000       0.00000000 </v>
    <v>       0.00000000       0.00000000       8.00000000 </v>
   </varray>
   <i name="volume">    512.00000000 </i>
   <varray name="rec_basis" >
    <v>       0.12500000       0.00000000       0.00000000 </v>
    <v>       0.00000000       0.12500000       0.00000000 </v>
    <v>       0.00000000       0.00000000       0.12500000 </v>
   </varray>
  </crystal>
  <varray name="positions" >
   <v>       0.00000000       0.00000000       0.00000000 </v>
   <v>       0.00000000       0.00000000       0.28750000 </v>
   <v>       0.00000000       0.00000000       0.14375000 </v>
  </varray>
  <varray name="selective"  type="logical" >
   <v type="logical" >  F  F  T </v>
   <v type="logical" >  F  F  T </v>
   <v type="logical" >  F  F  F </v>
  </varray>
  <nose>
   <v>      -3.00000000       0.00000000       0.00010000       0.00010000 </v>
  </nose>
 </structure>
 <calculation>
  <scstep>
   <time name="dav">    0.20    0.20</time>
   <time name="total">    0.57    0.57</time>
   <energy>
    <i name="alphaZ">      2.08377909 </i>
    <i name="ewald">    189.19814258 </i>
    <i name="hartreedc">   -999.89383323 </i>
    <i name="XCdc">     68.46809242 </i>
    <i name="pawpsdc">    529.82824833 </i>
    <i name="pawaedc">   -534.67809926 </i>
    <i name="eentropy">     -0.00000000 </i>
    <i name="bandstr">   -184.82561322 </i>
    <i name="atom">   1011.65361594 </i>
    <i name="e_fr_energy">     81.83433267 </i>
    <i name="e_wo_entrp">     81.83433267 </i>
    <i name="e_0_energy">     81.83433267 </i>
   </energy>
  </scstep>
  <scstep>
   <time name="dav">    0.27    0.27</time>
   <time name="total">    0.27    0.27</time>
   <energy>
    <i name="e_fr_energy">    -16.44896780 </i>
    <i name="e_wo_entrp">    -16.44896780 </i>
    <i name="e_0_energy">    -16.44896780 </i>
   </energy>
  </scstep>
  <scstep>
   <time name="dav">    0.19    0.19</time>
   <time name="total">    0.19    0.19</time>
   <energy>
    <i name="e_fr_energy">    -24.60352837 </i>
    <i name="e_wo_entrp">    -24.60352837 </i>
    <i name="e_0_energy">    -24.60352837 </i>
   </energy>
  </scstep>
  <scstep>
   <time name="dav">    0.22    0.22</time>
   <time name="total">    0.22    0.22</time>
   <energy>
    <i name="e_fr_energy">    -24.77262135 </i>
    <i name="e_wo_entrp">    -24.77262135 </i>
    <i name="e_0_energy">    -24.77262135 </i>
   </energy>
  </scstep>
  <scstep>
   <time name="dav">    0.16    0.16</time>
   <time name="total">    0.20    0.19</time>
   <energy>
    <i name="e_fr_energy">    -24.77365731 </i>
    <i name="e_wo_entrp">    -24.77365731 </i>
    <i name="e_0_energy">    -24.77365731 </i>
   </energy>
  </scstep>
  <scstep>
   <time name="diag">    0.03    0.03</time>
   <time name="diis">    0.12    0.12</time>
   <time name="orth">    0.00    0.00</time>
   <time name="total">    0.51    0.51</time>
   <energy>
    <i name="e_fr_energy">    -23.11732872 </i>
    <i name="e_wo_entrp">    -23.11732872 </i>
    <i name="e_0_energy">    -23.11732872 </i>
   </energy>
  </scstep>
  <scstep>
   <time name="diag">    0.03    0.03</time>
   <time name="diis">    0.13    0.13</time>
   <time name="orth">    0.00    0.00</time>
   <time name="total">    0.55    0.55</time>
   <energy>
    <i name="e_fr_energy">    -22.94878276 </i>
    <i name="e_wo_entrp">    -22.94878276 </i>
    <i name="e_0_energy">    -22.94878276 </i>
   </energy>
  </scstep>
  <scstep>
   <time name="diag">    0.03    0.03</time>
   <time name="diis">    0.13    0.13</time>
   <time name="orth">    0.00    0.00</time>
   <time name="total">    0.55    0.55</time>
   <energy>
    <i name="e_fr_energy">    -22.89779945 </i>
    <i name="e_wo_entrp">    -22.89779945 </i>
    <i name="e_0_energy">    -22.89779945 </i>
   </energy>
  </scstep>
  <scstep>
   <time name="diag">    0.04    0.03</time>
   <time name="diis">    0.13    0.13</time>
   <time name="orth">    0.00    0.00</time>
   <time name="total">    0.55    0.55</time>
   <energy>
    <i name="e_fr_energy">    -22.89468978 </i>
    <i name="e_wo_entrp">    -22.89468978 </i>
    <i name="e_0_energy">    -22.89468978 </i>
   </energy>
  </scstep>
  <scstep>
   <time name="diag">    0.03    0.03</time>
   <time name="diis">    0.12    0.12</time>
   <time name="orth">    0.00    0.00</time>
   <time name="total">    0.51    0.51</time>
   <energy>
    <i name="e_fr_energy">    -22.89717332 </i>
    <i name="e_wo_entrp">    -22.89717332 </i>
    <i name="e_0_energy">    -22.89717332 </i>
   </energy>
  </scstep>
  <scstep>
   <time name="diag">    0.03    0.03</time>
   <time name="diis">    0.12    0.12</time>
   <time name="orth">    0.00    0.00</time>
   <time name="total">    0.50    0.50</time>
   <energy>
    <i name="e_fr_energy">    -22.90173133 </i>
    <i name="e_wo_entrp">    -22.90173133 </i>
    <i name="e_0_energy">    -22.90173133 </i>
   </energy>
  </scstep>
  <scstep>
   <time name="diag">    0.04    0.03</time>
   <time name="diis">    0.12    0.13</time>
   <time name="orth">    0.00    0.00</time>
   <time name="total">    0.53    0.53</time>
   <energy>
    <i name="e_fr_energy">    -22.90275036 </i>
    <i name="e_wo_entrp">    -22.90275036 </i>
    <i name="e_0_energy">    -22.90275036 </i>
   </energy>
  </scstep>
  <scstep>
   <time name="diag">    0.03    0.03</time>
   <time name="diis">    0.13    0.13</time>
   <time name="orth">    0.00    0.00</time>
   <time name="total">    0.54    0.54</time>
   <energy>
    <i name="e_fr_energy">    -22.90408276 </i>
    <i name="e_wo_entrp">    -22.90408276 </i>
    <i name="e_0_energy">    -22.90408276 </i>
   </energy>
  </scstep>
  <scstep>
   <time name="diag">    0.03    0.03</time>
   <time name="diis">    0.13    0.13</time>
   <time name="orth">    0.00    0.00</time>
   <time name="total">    0.54    0.55</time>
   <energy>
    <i name="e_fr_energy">    -22.90423306 </i>
    <i name="e_wo_entrp">    -22.90423306 </i>
    <i name="e_0_energy">    -22.90423306 </i>
   </energy>
  </scstep>
  <scstep>
   <time name="diag">    0.03    0.03</time>
   <time name="diis">    0.11    0.11</time>
   <time name="orth">    0.00    0.00</time>
   <time name="total">    0.50    0.50</time>
   <energy>
    <i name="e_fr_energy">    -22.90434517 </i>
    <i name="e_wo_entrp">    -22.90434517 </i>
    <i name="e_0_energy">    -22.90434517 </i>
   </energy>
  </scstep>
  <scstep>
   <time name="diag">    0.03    0.03</time>
   <time name="diis">    0.08    0.09</time>
   <time name="orth">    0.00    0.00</time>
   <time name="total">    0.48    0.48</time>
   <energy>
    <i name="e_fr_energy">    -22.90436803 </i>
    <i name="e_wo_entrp">    -22.90436803 </i>
    <i name="e_0_energy">    -22.90436803 </i>
   </energy>
  </scstep>
  <scstep>
   <time name="diag">    0.03    0.03</time>
   <time name="diis">    0.10    0.09</time>
   <time name="orth">    0.00    0.00</time>
   <time name="total">    0.52    0.52</time>
   <energy>
    <i name="e_fr_energy">    -22.90437258 </i>
    <i name="e_wo_entrp">    -22.90437258 </i>
    <i name="e_0_energy">    -22.90437258 </i>
   </energy>
  </scstep>
  <scstep>
   <time name="diag">    0.03    0.03</time>
   <time name="diis">    0.09    0.09</time>
   <time name="orth">    0.00    0.00</time>
   <time name="total">    0.53    0.53</time>
   <energy>
    <i name="e_fr_energy">    -22.90437387 </i>
    <i name="e_wo_entrp">    -22.90437387 </i>
    <i name="e_0_energy">    -22.90437387 </i>
   </energy>
  </scstep>
  <scstep>
   <time name="diag">    0.03    0.03</time>
   <time name="diis">    0.08    0.08</time>
   <time name="orth">    0.00    0.00</time>
   <time name="total">    0.48    0.48</time>
   <energy>
    <i name="alphaZ">      2.08377909 </i>
    <i name="ewald">    189.19814258 </i>
    <i name="hartreedc">  -1042.25108508 </i>
    <i name="XCdc">     70.77364569 </i>
    <i name="pawpsdc">    717.03355528 </i>
    <i name="pawaedc">   -722.23853873 </i>
    <i name="eentropy">     -0.00000000 </i>
    <i name="bandstr">   -249.15748914 </i>
    <i name="atom">   1011.65361594 </i>
    <i name="e_fr_energy">    -22.90437437 </i>
    <i name="e_wo_entrp">    -22.90437437 </i>
    <i name="e_0_energy">    -22.90437437 </i>
   </energy>
  </scstep>
  <structure>
   <crystal>
    <varray name="basis" >
     <v>       8.00000000       0.00000000       0.00000000 </v>
     <v>       0.00000000       8.00000000       0.00000000 </v>
     <v>       0.00000000       0.00000000       8.00000000 </v>
    </varray>
    <i name="volume">    512.00000000 </i>
    <varray name="rec_basis" >
     <v>       0.12500000       0.00000000       0.00000000 </v>
     <v>       0.00000000       0.12500000       0.00000000 </v>
     <v>       0.00000000       0.00000000       0.12500000 </v>
    </varray>
   </crystal>
   <varray name="positions" >
    <v>       0.00000000       0.00000000       0.00000000 </v>
    <v>       0.00000000       0.00000000       0.28750000 </v>
    <v>       0.00000000       0.00000000       0.14375000 </v>
   </varray>
  </structure>
  <varray name="forces" >
   <v>       0.00000000      -0.00000000      -2.99192167 </v>
   <v>      -0.00000000       0.00000000       2.99192167 </v>
   <v>      -0.00000000       0.00000000      -0.00000000 </v>
  </varray>
  <varray name="stress" >
   <v>      -4.68765227      -0.00000000       0.00000000 </v>
   <v>       0.00000000      -4.68765227       0.00000000 </v>
   <v>       0.00000000      -0.00000000      17.92934326 </v>
  </varray>
  <energy>
   <i name="e_fr_energy">    -22.90437437 </i>
   <i name="e_wo_entrp">    -22.90437437 </i>
   <i name="e_0_energy">     -0.00000000 </i>
  </energy>
  <time name="totalsc">    9.50    9.51</time>
 </calculation>
 <calculation>
  <scstep>
   <time name="dav">    0.15    0.15</time>
   <time name="total">    0.54    0.54</time>
   <energy>
    <i name="alphaZ">      2.08377909 </i>
    <i name="ewald">    101.96966562 </i>
    <i name="hartreedc">   -980.17277688 </i>
    <i name="XCdc">     69.58991397 </i>
    <i name="pawpsdc">    717.03334594 </i>
    <i name="pawaedc">   -722.23831390 </i>
    <i name="eentropy">     -0.00000000 </i>
    <i name="bandstr">   -221.75826428 </i>
    <i name="atom">   1011.65361594 </i>
    <i name="e_fr_energy">    -21.83903450 </i>
    <i name="e_wo_entrp">    -21.83903450 </i>
    <i name="e_0_energy">    -21.83903450 </i>
   </energy>
  </scstep>
  <scstep>
   <time name="diag">    0.03    0.03</time>
   <time name="diis">    0.13    0.13</time>
   <time name="orth">    0.00    0.00</time>
   <time name="total">    0.46    0.46</time>
   <energy>
    <i name="e_fr_energy">    -21.94028081 </i>
    <i name="e_wo_entrp">    -21.94028081 </i>
    <i name="e_0_energy">    -21.94028081 </i>
   </energy>
  </scstep>
  <scstep>
   <time name="diag">    0.03    0.03</time>
   <time name="diis">    0.13    0.13</time>
   <time name="orth">    0.00    0.00</time>
   <time name="total">    0.47    0.47</time>
   <energy>
    <i name="e_fr_energy">    -21.89356288 </i>
    <i name="e_wo_entrp">    -21.89356288 </i>
    <i name="e_0_energy">    -21.89356288 </i>
   </energy>
  </scstep>
  <scstep>
   <time name="diag">    0.03    0.03</time>
   <time name="diis">    0.12    0.13</time>
   <time name="orth">    0.00    0.00</time>
   <time name="total">    0.48    0.48</time>
   <energy>
    <i name="e_fr_energy">    -21.89457822 </i>
    <i name="e_wo_entrp">    -21.89457822 </i>
    <i name="e_0_energy">    -21.89457822 </i>
   </energy>
  </scstep>
  <scstep>
   <time name="diag">    0.03    0.03</time>
   <time name="diis">    0.12    0.12</time>
   <time name="orth">    0.00    0.00</time>
   <time name="total">    0.44    0.44</time>
   <energy>
    <i name="e_fr_energy">    -21.89678126 </i>
    <i name="e_wo_entrp">    -21.89678126 </i>
    <i name="e_0_energy">    -21.89678126 </i>
   </energy>
  </scstep>
  <scstep>
   <time name="diag">    0.03    0.03</time>
   <time name="diis">    0.12    0.12</time>
   <time name="orth">    0.00    0.00</time>
   <time name="total">    0.46    0.46</time>
   <energy>
    <i name="e_fr_energy">    -21.89699694 </i>
    <i name="e_wo_entrp">    -21.89699694 </i>
    <i name="e_0_energy">    -21.89699694 </i>
   </energy>
  </scstep>
  <scstep>
   <time name="diag">    0.03    0.03</time>
   <time name="diis">    0.13    0.13</time>
   <time name="orth">    0.00    0.00</time>
   <time name="total">    0.50    0.50</time>
   <energy>
    <i name="e_fr_energy">    -21.89696159 </i>
    <i name="e_wo_entrp">    -21.89696159 </i>
    <i name="e_0_energy">    -21.89696159 </i>
   </energy>
  </scstep>
  <scstep>
   <time name="diag">    0.03    0.03</time>
   <time name="diis">    0.13    0.13</time>
   <time name="orth">    0.00    0.00</time>
   <time name="total">    0.51    0.51</time>
   <energy>
    <i name="e_fr_energy">    -21.89713372 </i>
    <i name="e_wo_entrp">    -21.89713372 </i>
    <i name="e_0_energy">    -21.89713372 </i>
   </energy>
  </scstep>
  <scstep>
   <time name="diag">    0.03    0.03</time>
   <time name="diis">    0.12    0.12</time>
   <time name="orth">    0.00    0.00</time>
   <time name="total">    0.52    0.52</time>
   <energy>
    <i name="e_fr_energy">    -21.89723850 </i>
    <i name="e_wo_entrp">    -21.89723850 </i>
    <i name="e_0_energy">    -21.89723850 </i>
   </energy>
  </scstep>
  <scstep>
   <time name="diag">    0.03    0.03</time>
   <time name="diis">    0.12    0.12</time>
   <time name="orth">    0.00    0.00</time>
   <time name="total">    0.54    0.54</time>
   <energy>
    <i name="e_fr_energy">    -21.89726194 </i>
    <i name="e_wo_entrp">    -21.89726194 </i>
    <i name="e_0_energy">    -21.89726194 </i>
   </energy>
  </scstep>
  <scstep>
   <time name="diag">    0.03    0.03</time>
   <time name="diis">    0.10    0.10</time>
   <time name="orth">    0.00    0.00</time>
   <time name="total">    0.49    0.49</time>
   <energy>
    <i name="e_fr_energy">    -21.89727385 </i>
    <i name="e_wo_entrp">    -21.89727385 </i>
    <i name="e_0_energy">    -21.89727385 </i>
   </energy>
  </scstep>
  <scstep>
   <time name="diag">    0.03    0.03</time>
   <time name="diis">    0.09    0.09</time>
   <time name="orth">    0.00    0.00</time>
   <time name="total">    0.49    0.49</time>
   <energy>
    <i name="e_fr_energy">    -21.89727781 </i>
    <i name="e_wo_entrp">    -21.89727781 </i>
    <i name="e_0_energy">    -21.89727781 </i>
   </energy>
  </scstep>
  <scstep>
   <time name="diag">    0.03    0.03</time>
   <time name="diis">    0.08    0.08</time>
   <time name="orth">    0.00    0.00</time>
   <time name="total">    0.52    0.52</time>
   <energy>
    <i name="e_fr_energy">    -21.89728066 </i>
    <i name="e_wo_entrp">    -21.89728066 </i>
    <i name="e_0_energy">    -21.89728066 </i>
   </energy>
  </scstep>
  <scstep>
   <time name="diag">    0.03    0.03</time>
   <time name="diis">    0.09    0.09</time>
   <time name="orth">    0.00    0.00</time>
   <time name="total">    0.49    0.49</time>
   <energy>
    <i name="alphaZ">      2.08377909 </i>
    <i name="ewald">    101.96966562 </i>
    <i name="hartreedc">   -962.51492359 </i>
    <i name="XCdc">     68.68846678 </i>
    <i name="pawpsdc">    637.77713163 </i>
    <i name="pawaedc">   -642.59403774 </i>
    <i name="eentropy">     -0.00000000 </i>
    <i name="bandstr">   -238.96097875 </i>
    <i name="atom">   1011.65361594 </i>
    <i name="e_fr_energy">    -21.89728101 </i>
    <i name="e_wo_entrp">    -21.89728101 </i>
    <i name="e_0_energy">    -21.89728101 </i>
   </energy>
  </scstep>
  <structure>
   <crystal>
    <varray name="basis" >
     <v>       8.00000000       0.00000000       0.00000000 </v>
     <v>       0.00000000       8.00000000       0.00000000 </v>
     <v>       0.00000000       0.00000000       8.00000000 </v>
    </varray>
    <i name="volume">    512.00000000 </i>
    <varray name="rec_basis" >
     <v>       0.12500000       0.00000000       0.00000000 </v>
     <v>       0.00000000       0.12500000       0.00000000 </v>
     <v>       0.00000000       0.00000000       0.12500000 </v>
    </varray>
   </crystal>
   <varray name="positions" >
    <v>       0.00000000       0.00000000      -0.01804228 </v>
    <v>       0.00000000       0.00000000       0.30554228 </v>
    <v>       0.00000000       0.00000000       0.14375000 </v>
   </varray>
  </structure>
  <varray name="forces" >
   <v>      -0.00000000       0.00000000       8.01098739 </v>
   <v>       0.00000000      -0.00000000      -8.01098739 </v>
   <v>      -0.00000000       0.00000000      -0.00000000 </v>
  </varray>
  <varray name="stress" >
   <v>      -4.84051129       0.00000000       0.00000000 </v>
   <v>       0.00000000      -4.84051129       0.00000000 </v>
   <v>       0.00000000       0.00000000     -68.08928239 </v>
  </varray>
  <energy>
   <i name="e_fr_energy">    -21.89728101 </i>
   <i name="e_wo_entrp">    -21.89728101 </i>
   <i name="e_0_energy">     -0.00000000 </i>
  </energy>
  <time name="totalsc">    7.68    7.68</time>
 </calculation>
 <calculation>
  <scstep>
   <time name="dav">    0.15    0.16</time>
   <time name="total">    0.54    0.54</time>
   <energy>
    <i name="alphaZ">      2.08377909 </i>
    <i name="ewald">    163.18432599 </i>
    <i name="hartreedc">  -1005.28108962 </i>
    <i name="XCdc">     69.47047962 </i>
    <i name="pawpsdc">    637.77587037 </i>
    <i name="pawaedc">   -642.59275526 </i>
    <i name="eentropy">     -0.00000000 </i>
    <i name="bandstr">   -259.15316474 </i>
    <i name="atom">   1011.65361594 </i>
    <i name="e_fr_energy">    -22.85893859 </i>
    <i name="e_wo_entrp">    -22.85893859 </i>
    <i name="e_0_energy">    -22.85893859 </i>
   </energy>
  </scstep>
  <scstep>
   <time name="diag">    0.03    0.03</time>
   <time name="diis">    0.12    0.12</time>
   <time name="orth">    0.00    0.00</time>
   <time name="total">    0.55    0.55</time>
   <energy>
    <i name="e_fr_energy">    -23.01067167 </i>
    <i name="e_wo_entrp">    -23.01067167 </i>
    <i name="e_0_energy">    -23.01067167 </i>
   </energy>
  </scstep>
  <scstep>
   <time name="diag">    0.03    0.03</time>
   <time name="diis">    0.12    0.12</time>
   <time name="orth">    0.00    0.00</time>
   <time name="total">    0.55    0.55</time>
   <energy>
    <i name="e_fr_energy">    -22.96500352 </i>
    <i name="e_wo_entrp">    -22.96500352 </i>
    <i name="e_0_energy">    -22.96500352 </i>
   </energy>
  </scstep>
  <scstep>
   <time name="diag">    0.03    0.03</time>
   <time name="diis">    0.12    0.12</time>
   <time name="orth">    0.00    0.00</time>
   <time name="total">    0.53    0.53</time>
   <energy>
    <i name="e_fr_energy">    -22.96417712 </i>
    <i name="e_wo_entrp">    -22.96417712 </i>
    <i name="e_0_energy">    -22.96417712 </i>
   </energy>
  </scstep>
  <scstep>
   <time name="diag">    0.03    0.03</time>
   <time name="diis">    0.13    0.13</time>
   <time name="orth">    0.00    0.00</time>
   <time name="total">    0.56    0.56</time>
   <energy>
    <i name="e_fr_energy">    -22.96460529 </i>
    <i name="e_wo_entrp">    -22.96460529 </i>
    <i name="e_0_energy">    -22.96460529 </i>
   </energy>
  </scstep>
  <scstep>
   <time name="diag">    0.03    0.03</time>
   <time name="diis">    0.13    0.13</time>
   <time name="orth">    0.00    0.00</time>
   <time name="total">    0.57    0.57</time>
   <energy>
    <i name="e_fr_energy">    -22.96486440 </i>
    <i name="e_wo_entrp">    -22.96486440 </i>
    <i name="e_0_energy">    -22.96486440 </i>
   </energy>
  </scstep>
  <scstep>
   <time name="diag">    0.03    0.03</time>
   <time name="diis">    0.14    0.14</time>
   <time name="orth">    0.00    0.00</time>
   <time name="total">    0.57    0.58</time>
   <energy>
    <i name="e_fr_energy">    -22.96494658 </i>
    <i name="e_wo_entrp">    -22.96494658 </i>
    <i name="e_0_energy">    -22.96494658 </i>
   </energy>
  </scstep>
  <scstep>
   <time name="diag">    0.03    0.03</time>
   <time name="diis">    0.12    0.12</time>
   <time name="orth">    0.00    0.00</time>
   <time name="total">    0.53    0.53</time>
   <energy>
    <i name="e_fr_energy">    -22.96536788 </i>
    <i name="e_wo_entrp">    -22.96536788 </i>
    <i name="e_0_energy">    -22.96536788 </i>
   </energy>
  </scstep>
  <scstep>
   <time name="diag">    0.03    0.03</time>
   <time name="diis">    0.12    0.12</time>
   <time name="orth">    0.00    0.00</time>
   <time name="total">    0.52    0.52</time>
   <energy>
    <i name="e_fr_energy">    -22.96542138 </i>
    <i name="e_wo_entrp">    -22.96542138 </i>
    <i name="e_0_energy">    -22.96542138 </i>
   </energy>
  </scstep>
  <scstep>
   <time name="diag">    0.03    0.03</time>
   <time name="diis">    0.12    0.12</time>
   <time name="orth">    0.00    0.00</time>
   <time name="total">    0.55    0.55</time>
   <energy>
    <i name="e_fr_energy">    -22.96550303 </i>
    <i name="e_wo_entrp">    -22.96550303 </i>
    <i name="e_0_energy">    -22.96550303 </i>
   </energy>
  </scstep>
  <scstep>
   <time name="diag">    0.03    0.03</time>
   <time name="diis">    0.10    0.10</time>
   <time name="orth">    0.00    0.00</time>
   <time name="total">    0.54    0.53</time>
   <energy>
    <i name="e_fr_energy">    -22.96551962 </i>
    <i name="e_wo_entrp">    -22.96551962 </i>
    <i name="e_0_energy">    -22.96551962 </i>
   </energy>
  </scstep>
  <scstep>
   <time name="diag">    0.03    0.03</time>
   <time name="diis">    0.10    0.09</time>
   <time name="orth">    0.00    0.00</time>
   <time name="total">    0.54    0.54</time>
   <energy>
    <i name="e_fr_energy">    -22.96553439 </i>
    <i name="e_wo_entrp">    -22.96553439 </i>
    <i name="e_0_energy">    -22.96553439 </i>
   </energy>
  </scstep>
  <scstep>
   <time name="diag">    0.03    0.03</time>
   <time name="diis">    0.08    0.08</time>
   <time name="orth">    0.00    0.00</time>
   <time name="total">    0.44    0.44</time>
   <energy>
    <i name="alphaZ">      2.08377909 </i>
    <i name="ewald">    163.18432599 </i>
    <i name="hartreedc">  -1018.76413875 </i>
    <i name="XCdc">     70.14881674 </i>
    <i name="pawpsdc">    691.29167431 </i>
    <i name="pawaedc">   -696.36535333 </i>
    <i name="eentropy">     -0.00000000 </i>
    <i name="bandstr">   -246.19825532 </i>
    <i name="atom">   1011.65361594 </i>
    <i name="e_fr_energy">    -22.96553533 </i>
    <i name="e_wo_entrp">    -22.96553533 </i>
    <i name="e_0_energy">    -22.96553533 </i>
   </energy>
  </scstep>
  <structure>
   <crystal>
    <varray name="basis" >
     <v>       8.00000000       0.00000000       0.00000000 </v>
     <v>       0.00000000       8.00000000       0.00000000 </v>
     <v>       0.00000000       0.00000000       8.00000000 </v>
    </varray>
    <i name="volume">    512.00000000 </i>
    <varray name="rec_basis" >
     <v>       0.12500000       0.00000000       0.00000000 </v>
     <v>       0.00000000       0.12500000       0.00000000 </v>
     <v>       0.00000000       0.00000000       0.12500000 </v>
    </varray>
   </crystal>
   <varray name="positions" >
    <v>       0.00000000       0.00000000      -0.00490607 </v>
    <v>       0.00000000       0.00000000       0.29240607 </v>
    <v>       0.00000000       0.00000000       0.14375000 </v>
   </varray>
  </structure>
  <varray name="forces" >
   <v>      -0.00000000       0.00000000       1.23505966 </v>
   <v>       0.00000000      -0.00000000      -1.23505966 </v>
   <v>       0.00000000       0.00000000      -0.00000000 </v>
  </varray>
  <varray name="stress" >
   <v>      -4.73004598       0.00000000       0.00000000 </v>
   <v>       0.00000000      -4.73004598       0.00000000 </v>
   <v>       0.00000000       0.00000000     -12.59991814 </v>
  </varray>
  <energy>
   <i name="e_fr_energy">    -22.96553533 </i>
   <i name="e_wo_entrp">    -22.96553533 </i>
   <i name="e_0_energy">     -0.00000000 </i>
  </energy>
  <time name="totalsc">    7.76    7.77</time>
 </calculation>
 <calculation>
  <scstep>
   <time name="dav">    0.16    0.15</time>
   <time name="total">    0.55    0.55</time>
   <energy>
    <i name="alphaZ">      2.08377909 </i>
    <i name="ewald">    175.64427152 </i>
    <i name="hartreedc">  -1027.27513073 </i>
    <i name="XCdc">     70.31097171 </i>
    <i name="pawpsdc">    691.29016900 </i>
    <i name="pawaedc">   -696.36383577 </i>
    <i name="eentropy">     -0.00000000 </i>
    <i name="bandstr">   -250.32061823 </i>
    <i name="atom">   1011.65361594 </i>
    <i name="e_fr_energy">    -22.97677746 </i>
    <i name="e_wo_entrp">    -22.97677746 </i>
    <i name="e_0_energy">    -22.97677746 </i>
   </energy>
  </scstep>
  <scstep>
   <time name="diag">    0.03    0.03</time>
   <time name="diis">    0.13    0.13</time>
   <time name="orth">    0.00    0.00</time>
   <time name="total">    0.58    0.58</time>
   <energy>
    <i name="e_fr_energy">    -22.97866924 </i>
    <i name="e_wo_entrp">    -22.97866924 </i>
    <i name="e_0_energy">    -22.97866924 </i>
   </energy>
  </scstep>
  <scstep>
   <time name="diag">    0.03    0.03</time>
   <time name="diis">    0.12    0.12</time>
   <time name="orth">    0.00    0.00</time>
   <time name="total">    0.54    0.54</time>
   <energy>
    <i name="e_fr_energy">    -22.97694613 </i>
    <i name="e_wo_entrp">    -22.97694613 </i>
    <i name="e_0_energy">    -22.97694613 </i>
   </energy>
  </scstep>
  <scstep>
   <time name="diag">    0.03    0.03</time>
   <time name="diis">    0.12    0.12</time>
   <time name="orth">    0.00    0.00</time>
   <time name="total">    0.53    0.53</time>
   <energy>
    <i name="e_fr_energy">    -22.97693522 </i>
    <i name="e_wo_entrp">    -22.97693522 </i>
    <i name="e_0_energy">    -22.97693522 </i>
   </energy>
  </scstep>
  <scstep>
   <time name="diag">    0.03    0.03</time>
   <time name="diis">    0.13    0.13</time>
   <time name="orth">    0.00    0.00</time>
   <time name="total">    0.56    0.56</time>
   <energy>
    <i name="e_fr_energy">    -22.97699065 </i>
    <i name="e_wo_entrp">    -22.97699065 </i>
    <i name="e_0_energy">    -22.97699065 </i>
   </energy>
  </scstep>
  <scstep>
   <time name="diag">    0.03    0.03</time>
   <time name="diis">    0.14    0.13</time>
   <time name="orth">    0.00    0.00</time>
   <time name="total">    0.58    0.58</time>
   <energy>
    <i name="e_fr_energy">    -22.97700912 </i>
    <i name="e_wo_entrp">    -22.97700912 </i>
    <i name="e_0_energy">    -22.97700912 </i>
   </energy>
  </scstep>
  <scstep>
   <time name="diag">    0.03    0.03</time>
   <time name="diis">    0.12    0.12</time>
   <time name="orth">    0.00    0.00</time>
   <time name="total">    0.56    0.57</time>
   <energy>
    <i name="e_fr_energy">    -22.97701502 </i>
    <i name="e_wo_entrp">    -22.97701502 </i>
    <i name="e_0_energy">    -22.97701502 </i>
   </energy>
  </scstep>
  <scstep>
   <time name="diag">    0.03    0.03</time>
   <time name="diis">    0.10    0.10</time>
   <time name="orth">    0.00    0.00</time>
   <time name="total">    0.52    0.52</time>
   <energy>
    <i name="e_fr_energy">    -22.97704436 </i>
    <i name="e_wo_entrp">    -22.97704436 </i>
    <i name="e_0_energy">    -22.97704436 </i>
   </energy>
  </scstep>
  <scstep>
   <time name="diag">    0.03    0.03</time>
   <time name="diis">    0.09    0.09</time>
   <time name="orth">    0.00    0.00</time>
   <time name="total">    0.50    0.49</time>
   <energy>
    <i name="e_fr_energy">    -22.97705294 </i>
    <i name="e_wo_entrp">    -22.97705294 </i>
    <i name="e_0_energy">    -22.97705294 </i>
   </energy>
  </scstep>
  <scstep>
   <time name="diag">    0.03    0.03</time>
   <time name="diis">    0.09    0.09</time>
   <time name="orth">    0.00    0.00</time>
   <time name="total">    0.54    0.54</time>
   <energy>
    <i name="e_fr_energy">    -22.97705949 </i>
    <i name="e_wo_entrp">    -22.97705949 </i>
    <i name="e_0_energy">    -22.97705949 </i>
   </energy>
  </scstep>
  <scstep>
   <time name="diag">    0.03    0.03</time>
   <time name="diis">    0.10    0.10</time>
   <time name="orth">    0.00    0.00</time>
   <time name="total">    0.49    0.49</time>
   <energy>
    <i name="alphaZ">      2.08377909 </i>
    <i name="ewald">    175.64427152 </i>
    <i name="hartreedc">  -1030.04522847 </i>
    <i name="XCdc">     70.44796533 </i>
    <i name="pawpsdc">    703.42211718 </i>
    <i name="pawaedc">   -708.55694515 </i>
    <i name="eentropy">     -0.00000000 </i>
    <i name="bandstr">   -247.62663581 </i>
    <i name="atom">   1011.65361594 </i>
    <i name="e_fr_energy">    -22.97706037 </i>
    <i name="e_wo_entrp">    -22.97706037 </i>
    <i name="e_0_energy">    -22.97706037 </i>
   </energy>
  </scstep>
  <structure>
   <crystal>
    <varray name="basis" >
     <v>       8.00000000       0.00000000       0.00000000 </v>
     <v>       0.00000000       8.00000000       0.00000000 </v>
     <v>       0.00000000       0.00000000       8.00000000 </v>
    </varray>
    <i name="volume">    512.00000000 </i>
    <varray name="rec_basis" >
     <v>       0.12500000       0.00000000       0.00000000 </v>
     <v>       0.00000000       0.12500000       0.00000000 </v>
     <v>       0.00000000       0.00000000       0.12500000 </v>
    </varray>
   </crystal>
   <varray name="positions" >
    <v>       0.00000000       0.00000000      -0.00251172 </v>
    <v>       0.00000000       0.00000000       0.29001172 </v>
    <v>       0.00000000       0.00000000       0.14375000 </v>
   </varray>
  </structure>
  <varray name="forces" >
   <v>       0.00000000       0.00000000      -0.67930143 </v>
   <v>      -0.00000000      -0.00000000       0.67930143 </v>
   <v>       0.00000000      -0.00000000      -0.00000000 </v>
  </varray>
  <varray name="stress" >
   <v>      -4.70361205       0.00000000      -0.00000000 </v>
   <v>       0.00000000      -4.70361205       0.00000000 </v>
   <v>      -0.00000000       0.00000000       1.50654239 </v>
  </varray>
  <energy>
   <i name="e_fr_energy">    -22.97706037 </i>
   <i name="e_wo_entrp">    -22.97706037 </i>
   <i name="e_0_energy">     -0.00000000 </i>
  </energy>
  <time name="totalsc">    6.74    6.75</time>
 </calculation>
 <calculation>
  <scstep>
   <time name="dav">    0.14    0.14</time>
   <time name="total">    0.52    0.52</time>
   <energy>
    <i name="alphaZ">      2.08377909 </i>
    <i name="ewald">    171.17258602 </i>
    <i name="hartreedc">  -1026.99074413 </i>
    <i name="XCdc">     70.38941664 </i>
    <i name="pawpsdc">    703.42430581 </i>
    <i name="pawaedc">   -708.55916727 </i>
    <i name="eentropy">     -0.00000000 </i>
    <i name="bandstr">   -246.15525878 </i>
    <i name="atom">   1011.65361594 </i>
    <i name="e_fr_energy">    -22.98146667 </i>
    <i name="e_wo_entrp">    -22.98146667 </i>
    <i name="e_0_energy">    -22.98146667 </i>
   </energy>
  </scstep>
  <scstep>
   <time name="diag">    0.03    0.03</time>
   <time name="diis">    0.13    0.13</time>
   <time name="orth">    0.00    0.00</time>
   <time name="total">    0.50    0.50</time>
   <energy>
    <i name="e_fr_energy">    -22.98158437 </i>
    <i name="e_wo_entrp">    -22.98158437 </i>
    <i name="e_0_energy">    -22.98158437 </i>
   </energy>
  </scstep>
  <scstep>
   <time name="diag">    0.03    0.03</time>
   <time name="diis">    0.13    0.13</time>
   <time name="orth">    0.00    0.00</time>
   <time name="total">    0.50    0.50</time>
   <energy>
    <i name="e_fr_energy">    -22.98139433 </i>
    <i name="e_wo_entrp">    -22.98139433 </i>
    <i name="e_0_energy">    -22.98139433 </i>
   </energy>
  </scstep>
  <scstep>
   <time name="diag">    0.04    0.03</time>
   <time name="diis">    0.13    0.13</time>
   <time name="orth">    0.00    0.00</time>
   <time name="total">    0.51    0.51</time>
   <energy>
    <i name="e_fr_energy">    -22.98139765 </i>
    <i name="e_wo_entrp">    -22.98139765 </i>
    <i name="e_0_energy">    -22.98139765 </i>
   </energy>
  </scstep>
  <scstep>
   <time name="diag">    0.03    0.03</time>
   <time name="diis">    0.12    0.13</time>
   <time name="orth">    0.00    0.00</time>
   <time name="total">    0.51    0.51</time>
   <energy>
    <i name="e_fr_energy">    -22.98140551 </i>
    <i name="e_wo_entrp">    -22.98140551 </i>
    <i name="e_0_energy">    -22.98140551 </i>
   </energy>
  </scstep>
  <scstep>
   <time name="diag">    0.03    0.03</time>
   <time name="diis">    0.11    0.11</time>
   <time name="orth">    0.00    0.00</time>
   <time name="total">    0.46    0.46</time>
   <energy>
    <i name="e_fr_energy">    -22.98140946 </i>
    <i name="e_wo_entrp">    -22.98140946 </i>
    <i name="e_0_energy">    -22.98140946 </i>
   </energy>
  </scstep>
  <scstep>
   <time name="diag">    0.03    0.03</time>
   <time name="diis">    0.10    0.09</time>
   <time name="orth">    0.00    0.00</time>
   <time name="total">    0.46    0.46</time>
   <energy>
    <i name="e_fr_energy">    -22.98141096 </i>
    <i name="e_wo_entrp">    -22.98141096 </i>
    <i name="e_0_energy">    -22.98141096 </i>
   </energy>
  </scstep>
  <scstep>
   <time name="diag">    0.03    0.03</time>
   <time name="diis">    0.09    0.09</time>
   <time name="orth">    0.00    0.00</time>
   <time name="total">    0.50    0.50</time>
   <energy>
    <i name="e_fr_energy">    -22.98141719 </i>
    <i name="e_wo_entrp">    -22.98141719 </i>
    <i name="e_0_energy">    -22.98141719 </i>
   </energy>
  </scstep>
  <scstep>
   <time name="diag">    0.03    0.03</time>
   <time name="diis">    0.10    0.10</time>
   <time name="orth">    0.00    0.00</time>
   <time name="total">    0.52    0.52</time>
   <energy>
    <i name="e_fr_energy">    -22.98141976 </i>
    <i name="e_wo_entrp">    -22.98141976 </i>
    <i name="e_0_energy">    -22.98141976 </i>
   </energy>
  </scstep>
  <scstep>
   <time name="diag">    0.03    0.03</time>
   <time name="diis">    0.09    0.09</time>
   <time name="orth">    0.00    0.00</time>
   <time name="total">    0.53    0.53</time>
   <energy>
    <i name="e_fr_energy">    -22.98142085 </i>
    <i name="e_wo_entrp">    -22.98142085 </i>
    <i name="e_0_energy">    -22.98142085 </i>
   </energy>
  </scstep>
  <scstep>
   <time name="diag">    0.03    0.03</time>
   <time name="diis">    0.08    0.08</time>
   <time name="orth">    0.00    0.00</time>
   <time name="total">    0.44    0.45</time>
   <energy>
    <i name="alphaZ">      2.08377909 </i>
    <i name="ewald">    171.17258602 </i>
    <i name="hartreedc">  -1026.00151787 </i>
    <i name="XCdc">     70.34050260 </i>
    <i name="pawpsdc">    699.02385426 </i>
    <i name="pawaedc">   -704.13638039 </i>
    <i name="eentropy">     -0.00000000 </i>
    <i name="bandstr">   -247.11786096 </i>
    <i name="atom">   1011.65361594 </i>
    <i name="e_fr_energy">    -22.98142130 </i>
    <i name="e_wo_entrp">    -22.98142130 </i>
    <i name="e_0_energy">    -22.98142130 </i>
   </energy>
  </scstep>
  <structure>
   <crystal>
    <varray name="basis" >
     <v>       8.00000000       0.00000000       0.00000000 </v>
     <v>       0.00000000       8.00000000       0.00000000 </v>
     <v>       0.00000000       0.00000000       8.00000000 </v>
    </varray>
    <i name="volume">    512.00000000 </i>
    <varray name="rec_basis" >
     <v>       0.12500000       0.00000000       0.00000000 </v>
     <v>       0.00000000       0.12500000       0.00000000 </v>
     <v>       0.00000000       0.00000000       0.12500000 </v>
    </varray>
   </crystal>
   <varray name="positions" >
    <v>       0.00000000       0.00000000      -0.00336134 </v>
    <v>       0.00000000       0.00000000       0.29086134 </v>
    <v>       0.00000000       0.00000000       0.14375000 </v>
   </varray>
  </structure>
  <varray name="forces" >
   <v>       0.00000000      -0.00000000       0.03072574 </v>
   <v>      -0.00000000       0.00000000      -0.03072574 </v>
   <v>       0.00000000       0.00000000       0.00000000 </v>
  </varray>
  <varray name="stress" >
   <v>      -4.71398034       0.00000000       0.00000000 </v>
   <v>       0.00000000      -4.71398034       0.00000000 </v>
   <v>       0.00000000       0.00000000      -3.66850279 </v>
  </varray>
  <energy>
   <i name="e_fr_energy">    -22.98142130 </i>
   <i name="e_wo_entrp">    -22.98142130 </i>
   <i name="e_0_energy">     -0.00000000 </i>
  </energy>
  <time name="totalsc">    6.23    6.23</time>
 </calculation>
 <calculation>
  <scstep>
   <time name="dav">    0.17    0.17</time>
   <time name="total">    0.57    0.57</time>
   <energy>
    <i name="alphaZ">      2.08377909 </i>
    <i name="ewald">    171.36493582 </i>
    <i name="hartreedc">  -1026.13258023 </i>
    <i name="XCdc">     70.34299258 </i>
    <i name="pawpsdc">    699.02319573 </i>
    <i name="pawaedc">   -704.13571459 </i>
    <i name="eentropy">     -0.00000000 </i>
    <i name="bandstr">   -247.18165534 </i>
    <i name="atom">   1011.65361594 </i>
    <i name="e_fr_energy">    -22.98143100 </i>
    <i name="e_wo_entrp">    -22.98143100 </i>
    <i name="e_0_energy">    -22.98143100 </i>
   </energy>
  </scstep>
  <scstep>
   <time name="diag">    0.03    0.03</time>
   <time name="diis">    0.13    0.13</time>
   <time name="orth">    0.00    0.00</time>
   <time name="total">    0.58    0.58</time>
   <energy>
    <i name="e_fr_energy">    -22.98143152 </i>
    <i name="e_wo_entrp">    -22.98143152 </i>
    <i name="e_0_energy">    -22.98143152 </i>
   </energy>
  </scstep>
  <scstep>
   <time name="diag">    0.03    0.03</time>
   <time name="diis">    0.09    0.08</time>
   <time name="orth">    0.00    0.00</time>
   <time name="total">    0.47    0.47</time>
   <energy>
    <i name="alphaZ">      2.08377909 </i>
    <i name="ewald">    171.36493582 </i>
    <i name="hartreedc">  -1026.16989844 </i>
    <i name="XCdc">     70.34489592 </i>
    <i name="pawpsdc">    699.16418308 </i>
    <i name="pawaedc">   -704.27735075 </i>
    <i name="eentropy">     -0.00000000 </i>
    <i name="bandstr">   -247.14559189 </i>
    <i name="atom">   1011.65361594 </i>
    <i name="e_fr_energy">    -22.98143122 </i>
    <i name="e_wo_entrp">    -22.98143122 </i>
    <i name="e_0_energy">    -22.98143122 </i>
   </energy>
  </scstep>
  <structure>
   <crystal>
    <varray name="basis" >
     <v>       8.00000000       0.00000000       0.00000000 </v>
     <v>       0.00000000       8.00000000       0.00000000 </v>
     <v>       0.00000000       0.00000000       8.00000000 </v>
    </varray>
    <i name="volume">    512.00000000 </i>
    <varray name="rec_basis" >
     <v>       0.12500000       0.00000000       0.00000000 </v>
     <v>       0.00000000       0.12500000       0.00000000 </v>
     <v>       0.00000000       0.00000000       0.12500000 </v>
    </varray>
   </crystal>
   <varray name="positions" >
    <v>       0.00000000       0.00000000      -0.00332457 </v>
    <v>       0.00000000       0.00000000       0.29082457 </v>
    <v>       0.00000000       0.00000000       0.14375000 </v>
   </varray>
  </structure>
  <varray name="forces" >
   <v>       0.00000000      -0.00000000       0.00272360 </v>
   <v>      -0.00000000       0.00000000      -0.00272360 </v>
   <v>       0.00000000       0.00000000       0.00000000 </v>
  </varray>
  <varray name="stress" >
   <v>      -4.69520631       0.00000000       0.00000000 </v>
   <v>      -0.00000000      -4.69520631      -0.00000000 </v>
   <v>       0.00000000       0.00000000      -3.44696306 </v>
  </varray>
  <energy>
   <i name="e_fr_energy">    -22.98143122 </i>
   <i name="e_wo_entrp">    -22.98143122 </i>
   <i name="e_0_energy">     -0.00000000 </i>
  </energy>
  <time name="totalsc">    2.28    2.28</time>
  <eigenvalues>
   <array>
    <dimension dim="1">band</dimension>
    <dimension dim="2">kpoint</dimension>
    <dimension dim="3">spin</dimension>
    <field>eigene</field>
    <field>occ</field>
    <set>
     <set comment="spin 1">
      <set comment="kpoint 1">
       <r>  -28.7273    1.0000 </r>
       <r>  -27.7120    1.0000 </r>
       <r>  -13.3402    1.0000 </r>
       <r>  -12.1978    1.0000 </r>
       <r>  -12.1978    1.0000 </r>
       <r>  -12.1452    1.0000 </r>
       <r>   -8.6262    1.0000 </r>
       <r>   -8.6262    1.0000 </r>
       <r>   -0.8798    0.0000 </r>
       <r>   -0.1562    0.0000 </r>
       <r>   -0.1562    0.0000 </r>
       <r>    1.3163    0.0000 </r>
      </set>
     </set>
    </set>
   </array>
  </eigenvalues>
  <separator name="orbital magnetization" >
   <v name="MAGDIPOLOUT">      0.00000000      0.00000000      0.00000000</v>
  </separator>
 </calculation>
 <structure name="finalpos" >
  <crystal>
   <varray name="basis" >
    <v>       8.00000000       0.00000000       0.00000000 </v>
    <v>       0.00000000       8.00000000       0.00000000 </v>
    <v>       0.00000000       0.00000000       8.00000000 </v>
   </varray>
   <i name="volume">    512.00000000 </i>
   <varray name="rec_basis" >
    <v>       0.12500000       0.00000000       0.00000000 </v>
    <v>       0.00000000       0.12500000       0.00000000 </v>
    <v>       0.00000000       0.00000000       0.12500000 </v>
   </varray>
  </crystal>
  <varray name="positions" >
   <v>       0.00000000       0.00000000      -0.00332457 </v>
   <v>       0.00000000       0.00000000       0.29082457 </v>
   <v>       0.00000000       0.00000000       0.14375000 </v>
  </varray>
  <varray name="selective"  type="logical" >
   <v type="logical" >  F  F  T </v>
   <v type="logical" >  F  F  T </v>
   <v type="logical" >  F  F  F </v>
  </varray>
  <nose>
   <v>      -3.00000000       0.00000000       0.00010000       0.00010000 </v>
  </nose>
 </structure>
</modeling>
