 running on    1 total cores
 distrk:  each k-point on    1 cores,    1 groups
 distr:  one band on    1 cores,    1 groups
 using from now: INCAR     
 vasp.5.3.3 18Dez12 (build Sep  7 2015 22:32:56) complex                        
  
 POSCAR found type information on POSCAR  Fe
 POSCAR found :  1 types and       6 ions
 LDA part: xc-table for Pade appr. of Perdew
 POSCAR, INCAR and KPOINTS ok, starting setup
 WARNING: small aliasing (wrap around) errors must be expected
 FFT: planning ...
 WAVECAR not read
 entering main loop
       N       E                     dE             d eps       ncg     rms          rms(c)
DAV:   1     0.312299896965E+03    0.31230E+03   -0.15389E+04  5084   0.105E+03
DAV:   2    -0.227070153677E+02   -0.33501E+03   -0.31896E+03  5084   0.341E+02
DAV:   3    -0.477840511632E+02   -0.25077E+02   -0.23478E+02  8327   0.934E+01
DAV:   4    -0.499520722329E+02   -0.21680E+01   -0.20784E+01  7334   0.323E+01
DAV:   5    -0.501347351516E+02   -0.18266E+00   -0.17717E+00  7834   0.599E+00
DAV:   6    -0.501539792242E+02   -0.19244E-01   -0.18955E-01  7668   0.131E+00
DAV:   7    -0.501554848212E+02   -0.15056E-02   -0.14997E-02  7974   0.302E-01
DAV:   8    -0.501556729907E+02   -0.18817E-03   -0.18754E-03  6086   0.692E-02
DAV:   9    -0.501557002154E+02   -0.27225E-04   -0.27076E-04  4959   0.257E-02
DAV:  10    -0.501557053636E+02   -0.51482E-05   -0.51165E-05  4221   0.102E-02    0.269E+01
RMM:  11    -0.961741297375E+02   -0.46018E+02   -0.32751E+02  7458   0.152E+02    0.922E+01
RMM:  12    -0.575474095829E+02    0.38627E+02   -0.52508E+01  5110   0.798E+01    0.477E+01
RMM:  13    -0.586718610447E+02   -0.11245E+01   -0.11165E+02  5298   0.850E+01    0.481E+01
RMM:  14    -0.511186663780E+02    0.75532E+01   -0.38731E+01  5528   0.538E+01    0.450E+01
RMM:  15    -0.437129924710E+02    0.74057E+01   -0.76841E+00  5108   0.285E+01    0.229E+01
RMM:  16    -0.426292049759E+02    0.10838E+01   -0.74648E+00  5769   0.172E+01    0.129E+01
RMM:  17    -0.426919280260E+02   -0.62723E-01   -0.17363E+00  7088   0.433E+00    0.124E+01
RMM:  18    -0.426827992218E+02    0.91288E-02   -0.21565E-01  7272   0.116E+00    0.128E+01
RMM:  19    -0.427591178184E+02   -0.76319E-01   -0.50187E-02  5629   0.153E+00    0.128E+01
RMM:  20    -0.428738278332E+02   -0.11471E+00   -0.28050E-01  5131   0.446E+00    0.130E+01
RMM:  21    -0.429478443798E+02   -0.74017E-01   -0.89763E-01  5339   0.689E+00    0.115E+01
RMM:  22    -0.427927945508E+02    0.15505E+00   -0.53676E-01  5350   0.445E+00    0.109E+01
RMM:  23    -0.428661841920E+02   -0.73390E-01   -0.16596E-01  5908   0.155E+00    0.113E+01
RMM:  24    -0.427829691781E+02    0.83215E-01   -0.45793E-01  5234   0.288E+00    0.113E+01
RMM:  25    -0.427432964386E+02    0.39673E-01   -0.19875E-01  5806   0.152E+00    0.112E+01
RMM:  26    -0.426804914245E+02    0.62805E-01   -0.18327E-01  5242   0.197E+00    0.108E+01
RMM:  27    -0.427611507715E+02   -0.80659E-01   -0.22704E-01  5418   0.255E+00    0.103E+01
RMM:  28    -0.429501545667E+02   -0.18900E+00   -0.76351E-01  5547   0.481E+00    0.870E+00
RMM:  29    -0.430088454478E+02   -0.58691E-01   -0.25394E-01  6569   0.196E+00    0.787E+00
RMM:  30    -0.433360438204E+02   -0.32720E+00   -0.20083E-01  5373   0.284E+00    0.604E+00
RMM:  31    -0.435150644339E+02   -0.17902E+00   -0.17773E-01  6525   0.171E+00    0.502E+00
RMM:  32    -0.438265088650E+02   -0.31144E+00   -0.32795E-01  5421   0.335E+00    0.346E+00
RMM:  33    -0.441579567978E+02   -0.33145E+00   -0.44851E-01  5466   0.331E+00    0.173E+00
RMM:  34    -0.442684554282E+02   -0.11050E+00   -0.20468E-01  6327   0.162E+00    0.206E+00
RMM:  35    -0.443281402360E+02   -0.59685E-01   -0.12102E-01  5675   0.182E+00    0.197E+00
RMM:  36    -0.443489658155E+02   -0.20826E-01   -0.85209E-02  6234   0.130E+00    0.166E+00
RMM:  37    -0.443611516182E+02   -0.12186E-01   -0.51090E-02  5984   0.990E-01    0.116E+00
RMM:  38    -0.443706647958E+02   -0.95132E-02    0.10510E-03  6196   0.616E-01    0.102E+00
RMM:  39    -0.443791693374E+02   -0.85045E-02   -0.78474E-03  6503   0.304E-01    0.806E-01
RMM:  40    -0.443832165300E+02   -0.40472E-02   -0.33387E-03  6242   0.209E-01    0.658E-01
RMM:  41    -0.443914878818E+02   -0.82714E-02   -0.74298E-03  5607   0.468E-01    0.446E-01
RMM:  42    -0.443962901029E+02   -0.48022E-02   -0.24238E-03  6418   0.268E-01    0.301E-01
RMM:  43    -0.444008980982E+02   -0.46080E-02   -0.44919E-03  6145   0.292E-01    0.281E-01
RMM:  44    -0.444022259490E+02   -0.13279E-02    0.22999E-04  6694   0.122E-01    0.197E-01
RMM:  45    -0.444040609952E+02   -0.18350E-02   -0.13728E-03  6087   0.142E-01    0.133E-01
RMM:  46    -0.444050163078E+02   -0.95531E-03    0.12325E-03  6011   0.712E-02    0.115E-01
RMM:  47    -0.444056950158E+02   -0.67871E-03   -0.64878E-04  4931   0.586E-02    0.878E-02
RMM:  48    -0.444060719072E+02   -0.37689E-03    0.10863E-03  4767   0.631E-02    0.476E-02
RMM:  49    -0.444064653344E+02   -0.39343E-03   -0.89546E-05  4665   0.509E-02    0.280E-02
RMM:  50    -0.444065599148E+02   -0.94580E-04    0.68534E-04  3883   0.373E-02    0.262E-02
RMM:  51    -0.444065597054E+02    0.20935E-06    0.36799E-04  3327   0.310E-02    0.243E-02
RMM:  52    -0.444065283151E+02    0.31390E-04    0.77877E-04  3365   0.325E-02    0.216E-02
RMM:  53    -0.444064954386E+02    0.32877E-04    0.33975E-04  3102   0.261E-02    0.203E-02
RMM:  54    -0.444064434104E+02    0.52028E-04    0.68164E-04  3183   0.303E-02    0.179E-02
RMM:  55    -0.444064120990E+02    0.31311E-04    0.43030E-04  3156   0.250E-02    0.116E-02
RMM:  56    -0.444063646033E+02    0.47496E-04    0.55420E-04  3079   0.242E-02    0.393E-03
RMM:  57    -0.444063172052E+02    0.47398E-04    0.51255E-04  3151   0.222E-02    0.414E-03
RMM:  58    -0.444062822204E+02    0.34985E-04    0.43772E-04  2867   0.192E-02    0.344E-03
RMM:  59    -0.444062390076E+02    0.43213E-04    0.48250E-04  2770   0.173E-02    0.357E-03
RMM:  60    -0.444061977370E+02    0.41271E-04    0.40898E-04  2573   0.162E-02

 ----------------------------------------------------------------------------- 
|                                                                             |
|           W    W    AA    RRRRR   N    N  II  N    N   GGGG   !!!           |
|           W    W   A  A   R    R  NN   N  II  NN   N  G    G  !!!           |
|           W    W  A    A  R    R  N N  N  II  N N  N  G       !!!           |
|           W WW W  AAAAAA  RRRRR   N  N N  II  N  N N  G  GGG   !            |
|           WW  WW  A    A  R   R   N   NN  II  N   NN  G    G                |
|           W    W  A    A  R    R  N    N  II  N    N   GGGG   !!!           |
|                                                                             |
|      Your highest band is occupied at some k-points! Unless you are         |
|      performing a calculation for an insulator or semiconductor, without    |
|      unoccupied bands, you have included TOO FEW BANDS!! Please increase    |
|      the parameter NBANDS in file INCAR to ensure that the highest band   |
|      is unoccupied at all k-points. It is always recommended to             |
|      include a few unoccupied bands to accelerate the convergence of        |
|      molecular dynamics runs (even for insulators or semiconductors).       |
|      Because the presence of unoccupied bands improves wavefunction         |
|      prediction, and helps to suppress 'band-crossings.'                    |
|                                                                             |
 ----------------------------------------------------------------------------- 

   1 F= -.44406198E+02 E0= -.44406893E+02  d E =-.444062E+02  mag=    14.0136
 curvature:   0.00 expect dE= 0.000E+00 dE for cont linesearch  0.000E+00
 trial: gam= 0.00000 g(F)=  0.395E-01 g(S)=  0.000E+00 ort = 0.000E+00 (trialstep = 0.100E+01)
 search vector abs. value=  0.395E-01
 bond charge predicted
       N       E                     dE             d eps       ncg     rms          rms(c)
DAV:   1    -0.443995240433E+02    0.67150E-02   -0.73481E+00  5084   0.148E+01    0.178E+00
RMM:   2    -0.444683866161E+02   -0.68863E-01   -0.28270E-01  5111   0.493E+00    0.319E+00
RMM:   3    -0.444555445605E+02    0.12842E-01   -0.19782E-01  5107   0.418E+00    0.240E+00
RMM:   4    -0.444482840352E+02    0.72605E-02   -0.57063E-02  5139   0.215E+00    0.146E+00
RMM:   5    -0.444368539296E+02    0.11430E-01   -0.66264E-03  5114   0.127E+00    0.202E-01
RMM:   6    -0.444377176114E+02   -0.86368E-03   -0.77682E-03  6383   0.421E-01    0.314E-01
RMM:   7    -0.444369799201E+02    0.73769E-03   -0.10412E-03  5181   0.452E-01    0.221E-01
RMM:   8    -0.444370928243E+02   -0.11290E-03   -0.13069E-03  5528   0.337E-01    0.201E-01
RMM:   9    -0.444372706878E+02   -0.17786E-03   -0.12260E-03  5616   0.298E-01    0.200E-01
RMM:  10    -0.444376629652E+02   -0.39228E-03   -0.15823E-03  5187   0.230E-01    0.674E-02
RMM:  11    -0.444380915125E+02   -0.42855E-03    0.26048E-05  6603   0.961E-02    0.811E-02
RMM:  12    -0.444383844285E+02   -0.29292E-03   -0.55868E-04  5075   0.939E-02    0.693E-02
RMM:  13    -0.444386954753E+02   -0.31105E-03    0.60819E-04  4609   0.597E-02    0.557E-02
RMM:  14    -0.444393792143E+02   -0.68374E-03   -0.35218E-04  4780   0.570E-02    0.394E-02
RMM:  15    -0.444398849478E+02   -0.50573E-03    0.11805E-04  4522   0.514E-02    0.230E-02
RMM:  16    -0.444403647015E+02   -0.47975E-03   -0.25040E-05  3719   0.425E-02    0.231E-02
RMM:  17    -0.444406799238E+02   -0.31522E-03    0.88326E-05  3858   0.355E-02    0.158E-02
RMM:  18    -0.444411024860E+02   -0.42256E-03   -0.33173E-05  3883   0.359E-02    0.114E-02
RMM:  19    -0.444415065514E+02   -0.40407E-03    0.53599E-05  4050   0.331E-02    0.100E-02
RMM:  20    -0.444417348608E+02   -0.22831E-03    0.24738E-05  4031   0.320E-02    0.456E-03
RMM:  21    -0.444418180705E+02   -0.83210E-04    0.62214E-05  3654   0.285E-02    0.517E-03
RMM:  22    -0.444418216961E+02   -0.36256E-05    0.75781E-05  3258   0.248E-02

 ----------------------------------------------------------------------------- 
|                                                                             |
|           W    W    AA    RRRRR   N    N  II  N    N   GGGG   !!!           |
|           W    W   A  A   R    R  NN   N  II  NN   N  G    G  !!!           |
|           W    W  A    A  R    R  N N  N  II  N N  N  G       !!!           |
|           W WW W  AAAAAA  RRRRR   N  N N  II  N  N N  G  GGG   !            |
|           WW  WW  A    A  R   R   N   NN  II  N   NN  G    G                |
|           W    W  A    A  R    R  N    N  II  N    N   GGGG   !!!           |
|                                                                             |
|      Your highest band is occupied at some k-points! Unless you are         |
|      performing a calculation for an insulator or semiconductor, without    |
|      unoccupied bands, you have included TOO FEW BANDS!! Please increase    |
|      the parameter NBANDS in file INCAR to ensure that the highest band   |
|      is unoccupied at all k-points. It is always recommended to             |
|      include a few unoccupied bands to accelerate the convergence of        |
|      molecular dynamics runs (even for insulators or semiconductors).       |
|      Because the presence of unoccupied bands improves wavefunction         |
|      prediction, and helps to suppress 'band-crossings.'                    |
|                                                                             |
 ----------------------------------------------------------------------------- 

   2 F= -.44441822E+02 E0= -.44442605E+02  d E =-.356240E-01  mag=    14.0150
 ZBRENT: can't locate minimum, use default step
 trial-energy change:   -0.035624  1 .order   -0.036165   -0.039502   -0.032827
 step:   4.0000(harm=  5.9182)  dis= 0.05900  next Energy=   -44.523087 (dE=-0.117E+00)
 bond charge predicted
       N       E                     dE             d eps       ncg     rms          rms(c)
DAV:   1    -0.440981250410E+02    0.34369E+00   -0.67975E+01  5084   0.469E+01    0.554E+00
RMM:   2    -0.448748314928E+02   -0.77671E+00   -0.39743E+00  5108   0.180E+01    0.107E+01
RMM:   3    -0.444943213561E+02    0.38051E+00   -0.18991E+00  5107   0.130E+01    0.595E+00
RMM:   4    -0.445399557302E+02   -0.45634E-01   -0.48512E-01  5153   0.595E+00    0.417E+00
RMM:   5    -0.444481422699E+02    0.91813E-01   -0.12542E-01  5120   0.370E+00    0.672E-01
RMM:   6    -0.444647204808E+02   -0.16578E-01   -0.91464E-02  5913   0.161E+00    0.964E-01
RMM:   7    -0.444627008695E+02    0.20196E-02   -0.27115E-02  5220   0.138E+00    0.613E-01
RMM:   8    -0.444648751924E+02   -0.21743E-02   -0.20713E-02  5781   0.851E-01    0.604E-01
RMM:   9    -0.444702980153E+02   -0.54228E-02   -0.17809E-02  5232   0.101E+00    0.691E-01
RMM:  10    -0.444691311514E+02    0.11669E-02   -0.12200E-02  5520   0.678E-01    0.217E-01
RMM:  11    -0.444729075322E+02   -0.37764E-02   -0.73479E-03  6094   0.441E-01    0.272E-01
RMM:  12    -0.444752156457E+02   -0.23081E-02   -0.43561E-03  5579   0.289E-01    0.184E-01
RMM:  13    -0.444770932326E+02   -0.18776E-02   -0.18760E-03  6321   0.112E-01    0.177E-01
RMM:  14    -0.444773552720E+02   -0.26204E-03   -0.25715E-03  4599   0.392E-02    0.188E-01
RMM:  15    -0.444817648081E+02   -0.44095E-02   -0.15263E-03  5862   0.130E-01    0.151E-01
RMM:  16    -0.444922609919E+02   -0.10496E-01   -0.22662E-03  5809   0.127E-01    0.150E-01
RMM:  17    -0.444974823665E+02   -0.52214E-02   -0.14312E-03  6204   0.106E-01    0.167E-01
RMM:  18    -0.445039303151E+02   -0.64479E-02   -0.14587E-03  5323   0.100E-01    0.184E-01
RMM:  19    -0.445079114218E+02   -0.39811E-02   -0.12408E-03  5776   0.942E-02    0.204E-01
RMM:  20    -0.445097290244E+02   -0.18176E-02   -0.79962E-04  5344   0.662E-02    0.224E-01
RMM:  21    -0.445105330088E+02   -0.80398E-03   -0.55558E-04  5061   0.520E-02    0.242E-01
RMM:  22    -0.445107573459E+02   -0.22434E-03   -0.41835E-04  4551   0.422E-02    0.254E-01
RMM:  23    -0.445109141718E+02   -0.15683E-03   -0.14090E-03  3627   0.332E-02    0.272E-01
RMM:  24    -0.445109438528E+02   -0.29681E-04   -0.26985E-04  3162   0.244E-02    0.278E-01
RMM:  25    -0.445109877035E+02   -0.43851E-04   -0.41846E-04  3107   0.225E-02    0.283E-01
RMM:  26    -0.445110232503E+02   -0.35547E-04   -0.25311E-04  3031   0.185E-02    0.285E-01
RMM:  27    -0.445110426982E+02   -0.19448E-04   -0.22505E-04  3012   0.194E-02    0.292E-01
RMM:  28    -0.445110668157E+02   -0.24118E-04   -0.24654E-04  2682   0.149E-02    0.293E-01
RMM:  29    -0.445110861500E+02   -0.19334E-04   -0.21630E-04  2523   0.137E-02    0.295E-01
RMM:  30    -0.445111030619E+02   -0.16912E-04   -0.23232E-04  2800   0.148E-02    0.304E-01
RMM:  31    -0.445111151711E+02   -0.12109E-04   -0.15516E-04  2578   0.126E-02    0.308E-01
RMM:  32    -0.445111311320E+02   -0.15961E-04   -0.18775E-04  2355   0.124E-02    0.311E-01
RMM:  33    -0.445111174594E+02    0.13673E-04   -0.10705E-04  2976   0.153E-02    0.321E-01
RMM:  34    -0.445111553608E+02   -0.37901E-04   -0.15477E-04  2877   0.175E-02    0.316E-01
RMM:  35    -0.445111809265E+02   -0.25566E-04   -0.15269E-04  2342   0.108E-02    0.312E-01
RMM:  36    -0.445111823464E+02   -0.14199E-05   -0.99333E-05  2030   0.101E-02

 ----------------------------------------------------------------------------- 
|                                                                             |
|           W    W    AA    RRRRR   N    N  II  N    N   GGGG   !!!           |
|           W    W   A  A   R    R  NN   N  II  NN   N  G    G  !!!           |
|           W    W  A    A  R    R  N N  N  II  N N  N  G       !!!           |
|           W WW W  AAAAAA  RRRRR   N  N N  II  N  N N  G  GGG   !            |
|           WW  WW  A    A  R   R   N   NN  II  N   NN  G    G                |
|           W    W  A    A  R    R  N    N  II  N    N   GGGG   !!!           |
|                                                                             |
|      Your highest band is occupied at some k-points! Unless you are         |
|      performing a calculation for an insulator or semiconductor, without    |
|      unoccupied bands, you have included TOO FEW BANDS!! Please increase    |
|      the parameter NBANDS in file INCAR to ensure that the highest band   |
|      is unoccupied at all k-points. It is always recommended to             |
|      include a few unoccupied bands to accelerate the convergence of        |
|      molecular dynamics runs (even for insulators or semiconductors).       |
|      Because the presence of unoccupied bands improves wavefunction         |
|      prediction, and helps to suppress 'band-crossings.'                    |
|                                                                             |
 ----------------------------------------------------------------------------- 

   3 F= -.44511182E+02 E0= -.44511029E+02  d E =-.104985E+00  mag=    13.9391
 curvature:  -2.51 expect dE=-0.309E-01 dE for cont linesearch -0.104E-01
 ZBRENT: increasing intervall
 opt :  10.0000  next Energy=   -44.467662 (dE=-0.615E-01)
 bond charge predicted
       N       E                     dE             d eps       ncg     rms          rms(c)
DAV:   1    -0.412337382333E+02    0.32774E+01   -0.30971E+02  5084   0.114E+02    0.121E+01
RMM:   2    -0.498839202470E+02   -0.86502E+01   -0.45254E+01  5184   0.546E+01    0.336E+01
RMM:   3    -0.437867072538E+02    0.60972E+01   -0.10176E+01  5102   0.318E+01    0.850E+00
RMM:   4    -0.446700677959E+02   -0.88336E+00   -0.50282E+00  5145   0.196E+01    0.102E+01
RMM:   5    -0.441541291531E+02    0.51594E+00   -0.97669E-01  5101   0.102E+01    0.333E+00
RMM:   6    -0.441739268084E+02   -0.19798E-01   -0.40811E-01  5312   0.491E+00    0.251E+00
RMM:   7    -0.441789204676E+02   -0.49937E-02   -0.17750E-01  5695   0.237E+00    0.126E+00
RMM:   8    -0.441911110228E+02   -0.12191E-01   -0.10314E-01  5335   0.245E+00    0.164E+00
RMM:   9    -0.442067032540E+02   -0.15592E-01   -0.64707E-02  5372   0.182E+00    0.128E+00
RMM:  10    -0.442110303265E+02   -0.43271E-02   -0.11535E-01  5705   0.170E+00    0.596E-01
RMM:  11    -0.442345081245E+02   -0.23478E-01   -0.53712E-02  5652   0.123E+00    0.761E-01
RMM:  12    -0.442497293760E+02   -0.15221E-01   -0.39393E-02  5455   0.103E+00    0.473E-01
RMM:  13    -0.442639844757E+02   -0.14255E-01   -0.27410E-02  6320   0.460E-01    0.362E-01
RMM:  14    -0.442757380018E+02   -0.11754E-01   -0.37116E-02  6166   0.271E-01    0.384E-01
RMM:  15    -0.442746353785E+02    0.11026E-02   -0.95386E-03  6750   0.979E-02    0.428E-01
RMM:  16    -0.443134238613E+02   -0.38788E-01   -0.14657E-02  5638   0.343E-01    0.301E-01
RMM:  17    -0.443518904099E+02   -0.38467E-01   -0.12475E-02  5544   0.305E-01    0.223E-01
RMM:  18    -0.443923196923E+02   -0.40429E-01   -0.11375E-02  5448   0.253E-01    0.201E-01
RMM:  19    -0.444395184281E+02   -0.47199E-01   -0.15173E-02  5442   0.307E-01    0.159E-01
RMM:  20    -0.444624950691E+02   -0.22977E-01   -0.13229E-02  5859   0.260E-01    0.970E-02
RMM:  21    -0.444663258500E+02   -0.38308E-02   -0.10238E-02  6658   0.156E-01    0.108E-01
RMM:  22    -0.444670480212E+02   -0.72217E-03   -0.64834E-03  5459   0.624E-02    0.124E-01
RMM:  23    -0.444675408950E+02   -0.49287E-03   -0.42557E-03  3835   0.363E-02    0.134E-01
RMM:  24    -0.444678834227E+02   -0.34253E-03   -0.40010E-03  3439   0.337E-02    0.153E-01
RMM:  25    -0.444683398123E+02   -0.45639E-03   -0.48111E-03  3320   0.265E-02    0.162E-01
RMM:  26    -0.444685663036E+02   -0.22649E-03   -0.27550E-03  3238   0.237E-02    0.170E-01
RMM:  27    -0.444687689849E+02   -0.20268E-03   -0.19936E-03  3211   0.225E-02    0.174E-01
RMM:  28    -0.444692597285E+02   -0.49074E-03   -0.18347E-03  4256   0.498E-02    0.151E-01
RMM:  29    -0.444696828684E+02   -0.42314E-03   -0.15351E-03  5419   0.739E-02    0.104E-01
RMM:  30    -0.444699966825E+02   -0.31381E-03   -0.14925E-03  4929   0.500E-02    0.917E-02
RMM:  31    -0.444703628754E+02   -0.36619E-03   -0.10257E-03  4039   0.443E-02    0.978E-02
RMM:  32    -0.444706855908E+02   -0.32272E-03   -0.10290E-03  3711   0.395E-02    0.910E-02
RMM:  33    -0.444709285843E+02   -0.24299E-03   -0.90455E-04  3438   0.284E-02    0.864E-02
RMM:  34    -0.444711359984E+02   -0.20741E-03   -0.59299E-04  3528   0.339E-02    0.809E-02
RMM:  35    -0.444712833792E+02   -0.14738E-03   -0.75642E-04  3303   0.272E-02    0.748E-02
RMM:  36    -0.444713262634E+02   -0.42884E-04   -0.40663E-04  3098   0.244E-02    0.740E-02
RMM:  37    -0.444713975116E+02   -0.71248E-04   -0.51045E-04  3093   0.231E-02    0.696E-02
RMM:  38    -0.444714473214E+02   -0.49810E-04   -0.30306E-04  3142   0.207E-02    0.610E-02
RMM:  39    -0.444714995824E+02   -0.52261E-04   -0.37849E-04  3357   0.311E-02    0.506E-02
RMM:  40    -0.444715276188E+02   -0.28036E-04   -0.22541E-04  3131   0.211E-02    0.462E-02
RMM:  41    -0.444715581399E+02   -0.30521E-04   -0.28289E-04  3061   0.241E-02    0.446E-02
RMM:  42    -0.444715859930E+02   -0.27853E-04   -0.16839E-04  3264   0.229E-02    0.318E-02
RMM:  43    -0.444716060083E+02   -0.20015E-04   -0.19101E-04  3115   0.190E-02    0.319E-02
RMM:  44    -0.444716259301E+02   -0.19922E-04   -0.11863E-04  3051   0.240E-02    0.253E-02
RMM:  45    -0.444716439236E+02   -0.17993E-04   -0.13051E-04  3001   0.163E-02    0.203E-02
RMM:  46    -0.444716573358E+02   -0.13412E-04   -0.86708E-05  3036   0.196E-02    0.166E-02
RMM:  47    -0.444716688126E+02   -0.11477E-04   -0.10156E-04  3039   0.169E-02    0.117E-02
RMM:  48    -0.444716755588E+02   -0.67461E-05   -0.68404E-05  2994   0.187E-02

 ----------------------------------------------------------------------------- 
|                                                                             |
|           W    W    AA    RRRRR   N    N  II  N    N   GGGG   !!!           |
|           W    W   A  A   R    R  NN   N  II  NN   N  G    G  !!!           |
|           W    W  A    A  R    R  N N  N  II  N N  N  G       !!!           |
|           W WW W  AAAAAA  RRRRR   N  N N  II  N  N N  G  GGG   !            |
|           WW  WW  A    A  R   R   N   NN  II  N   NN  G    G                |
|           W    W  A    A  R    R  N    N  II  N    N   GGGG   !!!           |
|                                                                             |
|      Your highest band is occupied at some k-points! Unless you are         |
|      performing a calculation for an insulator or semiconductor, without    |
|      unoccupied bands, you have included TOO FEW BANDS!! Please increase    |
|      the parameter NBANDS in file INCAR to ensure that the highest band   |
|      is unoccupied at all k-points. It is always recommended to             |
|      include a few unoccupied bands to accelerate the convergence of        |
|      molecular dynamics runs (even for insulators or semiconductors).       |
|      Because the presence of unoccupied bands improves wavefunction         |
|      prediction, and helps to suppress 'band-crossings.'                    |
|                                                                             |
 ----------------------------------------------------------------------------- 

   4 F= -.44471676E+02 E0= -.44472379E+02  d E =-.654778E-01  mag=    13.6605
 curvature:  10.51 expect dE= 0.105E+01 dE for cont linesearch  0.347E+00
 ZBRENT: bracketing found
 ZBRENT: interpolating
 opt :   5.5697  next Energy=   -44.521218 (dE=-0.115E+00)
 bond charge predicted
       N       E                     dE             d eps       ncg     rms          rms(c)
DAV:   1    -0.435276307374E+02    0.94404E+00   -0.15414E+02  5113   0.750E+01    0.741E+00
RMM:   2    -0.446707582577E+02   -0.11431E+01   -0.49785E+00  5138   0.192E+01    0.987E+00
RMM:   3    -0.451036815169E+02   -0.43292E+00   -0.32058E+00  5118   0.164E+01    0.117E+01
RMM:   4    -0.444665592604E+02    0.63712E+00   -0.67973E-01  5098   0.855E+00    0.287E+00
RMM:   5    -0.444507879274E+02    0.15771E-01   -0.18492E-01  5203   0.371E+00    0.136E+00
RMM:   6    -0.444526289049E+02   -0.18410E-02   -0.87690E-02  6136   0.142E+00    0.876E-01
RMM:   7    -0.444540342954E+02   -0.14054E-02   -0.67461E-02  5254   0.201E+00    0.126E+00
RMM:   8    -0.444398167401E+02    0.14218E-01   -0.30625E-02  5235   0.146E+00    0.894E-01
RMM:   9    -0.444301274472E+02    0.96893E-02   -0.32928E-02  5318   0.135E+00    0.820E-01
RMM:  10    -0.444324644717E+02   -0.23370E-02   -0.15410E-02  5308   0.962E-01    0.343E-01
RMM:  11    -0.444425958567E+02   -0.10131E-01   -0.16228E-02  6103   0.531E-01    0.335E-01
RMM:  12    -0.444454128946E+02   -0.28170E-02   -0.33462E-03  5687   0.330E-01    0.238E-01
RMM:  13    -0.444488101087E+02   -0.33972E-02   -0.27208E-03  5981   0.160E-01    0.193E-01
RMM:  14    -0.444574731978E+02   -0.86631E-02   -0.12799E-03  5689   0.151E-01    0.178E-01
RMM:  15    -0.444784060757E+02   -0.20933E-01   -0.53116E-03  5443   0.279E-01    0.103E-01
RMM:  16    -0.444884317573E+02   -0.10026E-01   -0.22664E-03  5766   0.148E-01    0.815E-02
RMM:  17    -0.445003024129E+02   -0.11871E-01   -0.20914E-03  5435   0.136E-01    0.706E-02
RMM:  18    -0.445125308620E+02   -0.12228E-01   -0.22301E-03  5507   0.121E-01    0.449E-02
RMM:  19    -0.445249537830E+02   -0.12423E-01   -0.36923E-03  5445   0.157E-01    0.282E-02
RMM:  20    -0.445275614650E+02   -0.26077E-02   -0.18378E-03  6104   0.106E-01    0.265E-02
RMM:  21    -0.445285309378E+02   -0.96947E-03   -0.11698E-03  5463   0.613E-02    0.268E-02
RMM:  22    -0.445288361651E+02   -0.30523E-03   -0.13591E-03  4438   0.384E-02    0.414E-02
RMM:  23    -0.445288687454E+02   -0.32580E-04   -0.30621E-04  3433   0.287E-02    0.439E-02
RMM:  24    -0.445288986143E+02   -0.29869E-04   -0.33793E-04  3231   0.222E-02    0.515E-02
RMM:  25    -0.445289626088E+02   -0.63995E-04   -0.18977E-04  3195   0.224E-02    0.489E-02
RMM:  26    -0.445290372648E+02   -0.74656E-04   -0.15962E-04  3411   0.291E-02    0.518E-02
RMM:  27    -0.445291164057E+02   -0.79141E-04   -0.21474E-04  3581   0.297E-02    0.505E-02
RMM:  28    -0.445291378170E+02   -0.21411E-04   -0.39072E-05  3233   0.259E-02    0.551E-02
RMM:  29    -0.445291727191E+02   -0.34902E-04   -0.13005E-04  3186   0.221E-02    0.536E-02
RMM:  30    -0.445291687857E+02    0.39334E-05   -0.61194E-06  3077   0.220E-02

 ----------------------------------------------------------------------------- 
|                                                                             |
|           W    W    AA    RRRRR   N    N  II  N    N   GGGG   !!!           |
|           W    W   A  A   R    R  NN   N  II  NN   N  G    G  !!!           |
|           W    W  A    A  R    R  N N  N  II  N N  N  G       !!!           |
|           W WW W  AAAAAA  RRRRR   N  N N  II  N  N N  G  GGG   !            |
|           WW  WW  A    A  R   R   N   NN  II  N   NN  G    G                |
|           W    W  A    A  R    R  N    N  II  N    N   GGGG   !!!           |
|                                                                             |
|      Your highest band is occupied at some k-points! Unless you are         |
|      performing a calculation for an insulator or semiconductor, without    |
|      unoccupied bands, you have included TOO FEW BANDS!! Please increase    |
|      the parameter NBANDS in file INCAR to ensure that the highest band   |
|      is unoccupied at all k-points. It is always recommended to             |
|      include a few unoccupied bands to accelerate the convergence of        |
|      molecular dynamics runs (even for insulators or semiconductors).       |
|      Because the presence of unoccupied bands improves wavefunction         |
|      prediction, and helps to suppress 'band-crossings.'                    |
|                                                                             |
 ----------------------------------------------------------------------------- 

   5 F= -.44529169E+02 E0= -.44529273E+02  d E =-.122971E+00  mag=    13.8148
 curvature:  -0.30 expect dE=-0.474E-02 dE for cont linesearch -0.438E-03
 ZBRENT: interpolating
 opt :   7.4344  next Energy=   -44.537411 (dE=-0.131E+00)
 bond charge predicted
       N       E                     dE             d eps       ncg     rms          rms(c)
DAV:   1    -0.443804910534E+02    0.14868E+00   -0.25805E+01  5084   0.281E+01    0.330E+00
RMM:   2    -0.445993091460E+02   -0.21882E+00   -0.10840E+00  5108   0.976E+00    0.527E+00
RMM:   3    -0.445461029828E+02    0.53206E-01   -0.64896E-01  5098   0.767E+00    0.345E+00
RMM:   4    -0.445293070228E+02    0.16796E-01   -0.11681E-01  5108   0.346E+00    0.175E+00
RMM:   5    -0.445110056586E+02    0.18301E-01   -0.28572E-02  5138   0.167E+00    0.468E-01
RMM:   6    -0.445132204358E+02   -0.22148E-02   -0.23761E-02  5520   0.957E-01    0.637E-01
RMM:   7    -0.445117815301E+02    0.14389E-02   -0.85616E-03  5196   0.831E-01    0.308E-01
RMM:   8    -0.445132017705E+02   -0.14202E-02   -0.92205E-03  5539   0.617E-01    0.423E-01
RMM:   9    -0.445140295254E+02   -0.82775E-03   -0.47036E-03  5253   0.578E-01    0.284E-01
RMM:  10    -0.445151714260E+02   -0.11419E-02   -0.41040E-03  5709   0.368E-01    0.133E-01
RMM:  11    -0.445165489961E+02   -0.13776E-02   -0.18075E-03  5897   0.213E-01    0.144E-01
RMM:  12    -0.445174527755E+02   -0.90378E-03   -0.90964E-04  5527   0.150E-01    0.102E-01
RMM:  13    -0.445191089592E+02   -0.16562E-02   -0.65449E-04  5903   0.961E-02    0.737E-02
RMM:  14    -0.445222124520E+02   -0.31035E-02   -0.83051E-04  5757   0.109E-01    0.607E-02
RMM:  15    -0.445237687165E+02   -0.15563E-02   -0.73499E-04  6053   0.925E-02    0.404E-02
RMM:  16    -0.445253138785E+02   -0.15452E-02   -0.33625E-04  5135   0.636E-02    0.335E-02
RMM:  17    -0.445261670581E+02   -0.85318E-03   -0.27439E-04  4989   0.524E-02    0.205E-02
RMM:  18    -0.445272085501E+02   -0.10415E-02   -0.22226E-04  4619   0.456E-02    0.127E-02
RMM:  19    -0.445280856267E+02   -0.87708E-03   -0.27770E-04  4722   0.408E-02    0.690E-03
RMM:  20    -0.445283087899E+02   -0.22316E-03   -0.15933E-04  3992   0.284E-02    0.599E-03
RMM:  21    -0.445283912459E+02   -0.82456E-04   -0.12796E-04  3459   0.211E-02    0.527E-03
RMM:  22    -0.445284128191E+02   -0.21573E-04   -0.98949E-05  3107   0.186E-02    0.616E-03
RMM:  23    -0.445284162282E+02   -0.34091E-05   -0.36759E-05  2937   0.144E-02

 ----------------------------------------------------------------------------- 
|                                                                             |
|           W    W    AA    RRRRR   N    N  II  N    N   GGGG   !!!           |
|           W    W   A  A   R    R  NN   N  II  NN   N  G    G  !!!           |
|           W    W  A    A  R    R  N N  N  II  N N  N  G       !!!           |
|           W WW W  AAAAAA  RRRRR   N  N N  II  N  N N  G  GGG   !            |
|           WW  WW  A    A  R   R   N   NN  II  N   NN  G    G                |
|           W    W  A    A  R    R  N    N  II  N    N   GGGG   !!!           |
|                                                                             |
|      Your highest band is occupied at some k-points! Unless you are         |
|      performing a calculation for an insulator or semiconductor, without    |
|      unoccupied bands, you have included TOO FEW BANDS!! Please increase    |
|      the parameter NBANDS in file INCAR to ensure that the highest band   |
|      is unoccupied at all k-points. It is always recommended to             |
|      include a few unoccupied bands to accelerate the convergence of        |
|      molecular dynamics runs (even for insulators or semiconductors).       |
|      Because the presence of unoccupied bands improves wavefunction         |
|      prediction, and helps to suppress 'band-crossings.'                    |
|                                                                             |
 ----------------------------------------------------------------------------- 

   6 F= -.44528416E+02 E0= -.44529399E+02  d E =-.122218E+00  mag=    13.7068
 curvature:  -5.73 expect dE=-0.185E+00 dE for cont linesearch -0.120E-01
 ZBRENT: interpolating
 opt :   6.4151  next Energy=   -44.532355 (dE=-0.126E+00)
 bond charge predicted
       N       E                     dE             d eps       ncg     rms          rms(c)
DAV:   1    -0.444888463477E+02    0.39566E-01   -0.76423E+00  5084   0.152E+01    0.172E+00
RMM:   2    -0.445314750509E+02   -0.42629E-01   -0.18495E-01  5126   0.402E+00    0.197E+00
RMM:   3    -0.445484303534E+02   -0.16955E-01   -0.16645E-01  5109   0.386E+00    0.213E+00
RMM:   4    -0.445286373585E+02    0.19793E-01   -0.29239E-02  5114   0.189E+00    0.408E-01
RMM:   5    -0.445292177997E+02   -0.58044E-03   -0.71821E-03  5235   0.674E-01    0.435E-01
RMM:   6    -0.445284875420E+02    0.73026E-03   -0.56231E-03  6289   0.328E-01    0.258E-01
RMM:   7    -0.445284926120E+02   -0.50701E-05   -0.34696E-03  5252   0.468E-01    0.258E-01
RMM:   8    -0.445280563445E+02    0.43627E-03   -0.17254E-03  5378   0.319E-01    0.179E-01
RMM:   9    -0.445284206328E+02   -0.36429E-03   -0.12512E-03  5320   0.277E-01    0.170E-01
RMM:  10    -0.445285230923E+02   -0.10246E-03   -0.83536E-04  5347   0.199E-01    0.544E-02
RMM:  11    -0.445289878956E+02   -0.46480E-03   -0.43112E-04  6044   0.929E-02    0.592E-02
RMM:  12    -0.445292231303E+02   -0.23523E-03   -0.19868E-04  4736   0.714E-02    0.515E-02
RMM:  13    -0.445295211047E+02   -0.29797E-03   -0.10274E-04  3836   0.440E-02    0.423E-02
RMM:  14    -0.445303459628E+02   -0.82486E-03   -0.11283E-04  4489   0.485E-02    0.263E-02
RMM:  15    -0.445309001594E+02   -0.55420E-03   -0.15994E-04  4602   0.477E-02    0.197E-02
RMM:  16    -0.445313561052E+02   -0.45595E-03   -0.55552E-05  3828   0.375E-02    0.125E-02
RMM:  17    -0.445318104712E+02   -0.45437E-03   -0.84368E-05  3914   0.283E-02    0.109E-02
RMM:  18    -0.445321497863E+02   -0.33932E-03   -0.46595E-05  3718   0.301E-02    0.772E-03
RMM:  19    -0.445325285899E+02   -0.37880E-03   -0.89297E-05  4031   0.270E-02    0.421E-03
RMM:  20    -0.445326317338E+02   -0.10314E-03   -0.25418E-05  3507   0.225E-02    0.388E-03
RMM:  21    -0.445326631384E+02   -0.31405E-04   -0.34889E-05  3149   0.187E-02    0.242E-03
RMM:  22    -0.445326694212E+02   -0.62828E-05   -0.18623E-05  2848   0.161E-02

 ----------------------------------------------------------------------------- 
|                                                                             |
|           W    W    AA    RRRRR   N    N  II  N    N   GGGG   !!!           |
|           W    W   A  A   R    R  NN   N  II  NN   N  G    G  !!!           |
|           W    W  A    A  R    R  N N  N  II  N N  N  G       !!!           |
|           W WW W  AAAAAA  RRRRR   N  N N  II  N  N N  G  GGG   !            |
|           WW  WW  A    A  R   R   N   NN  II  N   NN  G    G                |
|           W    W  A    A  R    R  N    N  II  N    N   GGGG   !!!           |
|                                                                             |
|      Your highest band is occupied at some k-points! Unless you are         |
|      performing a calculation for an insulator or semiconductor, without    |
|      unoccupied bands, you have included TOO FEW BANDS!! Please increase    |
|      the parameter NBANDS in file INCAR to ensure that the highest band   |
|      is unoccupied at all k-points. It is always recommended to             |
|      include a few unoccupied bands to accelerate the convergence of        |
|      molecular dynamics runs (even for insulators or semiconductors).       |
|      Because the presence of unoccupied bands improves wavefunction         |
|      prediction, and helps to suppress 'band-crossings.'                    |
|                                                                             |
 ----------------------------------------------------------------------------- 

   7 F= -.44532669E+02 E0= -.44533247E+02  d E =-.126472E+00  mag=    13.7471
 curvature:  -1.52 expect dE=-0.310E-01 dE for cont linesearch -0.163E-04
 trial: gam= 0.49823 g(F)=  0.203E-01 g(S)=  0.000E+00 ort = 0.651E-03 (trialstep = 0.208E+01)
 search vector abs. value=  0.308E-01
 bond charge predicted
       N       E                     dE             d eps       ncg     rms          rms(c)
DAV:   1    -0.444301883760E+02    0.10247E+00   -0.24961E+01  5084   0.277E+01    0.320E+00
RMM:   2    -0.447679011885E+02   -0.33771E+00   -0.13521E+00  5281   0.976E+00    0.629E+00
RMM:   3    -0.446214718591E+02    0.14643E+00   -0.71532E-01  5088   0.799E+00    0.398E+00
RMM:   4    -0.445841268317E+02    0.37345E-01   -0.17433E-01  5255   0.364E+00    0.209E+00
RMM:   5    -0.445635342575E+02    0.20593E-01   -0.52996E-02  5108   0.238E+00    0.567E-01
RMM:   6    -0.445658047304E+02   -0.22705E-02   -0.39025E-02  5951   0.102E+00    0.652E-01
RMM:   7    -0.445635609375E+02    0.22438E-02   -0.12078E-02  5211   0.893E-01    0.371E-01
RMM:   8    -0.445637014593E+02   -0.14052E-03   -0.10077E-02  5711   0.624E-01    0.354E-01
RMM:   9    -0.445631905438E+02    0.51092E-03   -0.46284E-03  5335   0.520E-01    0.283E-01
RMM:  10    -0.445628823777E+02    0.30817E-03   -0.24394E-03  5378   0.344E-01    0.773E-02
RMM:  11    -0.445631733149E+02   -0.29094E-03   -0.21166E-03  6867   0.145E-01    0.973E-02
RMM:  12    -0.445631889865E+02   -0.15672E-04   -0.59580E-04  5479   0.128E-01    0.578E-02
RMM:  13    -0.445632475430E+02   -0.58556E-04   -0.50216E-04  5210   0.620E-02    0.342E-02
RMM:  14    -0.445633141920E+02   -0.66649E-04   -0.25772E-04  3839   0.484E-02    0.278E-02
RMM:  15    -0.445633821410E+02   -0.67949E-04   -0.21278E-04  3683   0.467E-02    0.175E-02
RMM:  16    -0.445634763183E+02   -0.94177E-04   -0.12357E-04  3283   0.332E-02    0.912E-03
RMM:  17    -0.445635454081E+02   -0.69090E-04   -0.13157E-04  3268   0.189E-02    0.830E-03
RMM:  18    -0.445636057633E+02   -0.60355E-04   -0.63275E-05  3110   0.183E-02    0.645E-03
RMM:  19    -0.445636835614E+02   -0.77798E-04   -0.78071E-05  2951   0.144E-02    0.580E-03
RMM:  20    -0.445638394689E+02   -0.15591E-03   -0.52202E-05  3316   0.188E-02    0.586E-03
RMM:  21    -0.445638936167E+02   -0.54148E-04   -0.75601E-05  3126   0.171E-02    0.312E-03
RMM:  22    -0.445639176882E+02   -0.24072E-04   -0.31023E-05  2821   0.139E-02    0.371E-03
RMM:  23    -0.445639352576E+02   -0.17569E-04   -0.37564E-05  2715   0.130E-02    0.197E-03
RMM:  24    -0.445639450337E+02   -0.97761E-05   -0.20275E-05  2700   0.123E-02

 ----------------------------------------------------------------------------- 
|                                                                             |
|           W    W    AA    RRRRR   N    N  II  N    N   GGGG   !!!           |
|           W    W   A  A   R    R  NN   N  II  NN   N  G    G  !!!           |
|           W    W  A    A  R    R  N N  N  II  N N  N  G       !!!           |
|           W WW W  AAAAAA  RRRRR   N  N N  II  N  N N  G  GGG   !            |
|           WW  WW  A    A  R   R   N   NN  II  N   NN  G    G                |
|           W    W  A    A  R    R  N    N  II  N    N   GGGG   !!!           |
|                                                                             |
|      Your highest band is occupied at some k-points! Unless you are         |
|      performing a calculation for an insulator or semiconductor, without    |
|      unoccupied bands, you have included TOO FEW BANDS!! Please increase    |
|      the parameter NBANDS in file INCAR to ensure that the highest band   |
|      is unoccupied at all k-points. It is always recommended to             |
|      include a few unoccupied bands to accelerate the convergence of        |
|      molecular dynamics runs (even for insulators or semiconductors).       |
|      Because the presence of unoccupied bands improves wavefunction         |
|      prediction, and helps to suppress 'band-crossings.'                    |
|                                                                             |
 ----------------------------------------------------------------------------- 

   8 F= -.44563945E+02 E0= -.44564674E+02  d E =-.312756E-01  mag=    13.7271
 trial-energy change:   -0.031276  1 .order   -0.031413   -0.043026   -0.019800
 step:   3.9882(harm=  3.8587)  dis= 0.00467  next Energy=   -44.572894 (dE=-0.402E-01)
 bond charge predicted
       N       E                     dE             d eps       ncg     rms          rms(c)
DAV:   1    -0.444648770223E+02    0.99058E-01   -0.20828E+01  5084   0.252E+01    0.291E+00
RMM:   2    -0.447532333519E+02   -0.28836E+00   -0.11349E+00  5287   0.888E+00    0.592E+00
RMM:   3    -0.446167629143E+02    0.13647E+00   -0.59197E-01  5088   0.729E+00    0.351E+00
RMM:   4    -0.445891481405E+02    0.27615E-01   -0.13692E-01  5267   0.320E+00    0.180E+00
RMM:   5    -0.445737114528E+02    0.15437E-01   -0.43919E-02  5115   0.214E+00    0.557E-01
RMM:   6    -0.445745743240E+02   -0.86287E-03   -0.27233E-02  6037   0.841E-01    0.525E-01
RMM:   7    -0.445734377620E+02    0.11366E-02   -0.10206E-02  5231   0.792E-01    0.367E-01
RMM:   8    -0.445732659909E+02    0.17177E-03   -0.75388E-03  5624   0.579E-01    0.312E-01
RMM:   9    -0.445727133820E+02    0.55261E-03   -0.29714E-03  5311   0.402E-01    0.940E-02
RMM:  10    -0.445729975277E+02   -0.28415E-03   -0.25708E-03  5987   0.237E-01    0.132E-01
RMM:  11    -0.445730202963E+02   -0.22769E-04   -0.98648E-04  5460   0.155E-01    0.373E-02
RMM:  12    -0.445731366742E+02   -0.11638E-03   -0.90207E-04  5599   0.587E-02    0.373E-02
RMM:  13    -0.445731771449E+02   -0.40471E-04   -0.23938E-04  3876   0.515E-02    0.344E-02
RMM:  14    -0.445732339668E+02   -0.56822E-04   -0.23841E-04  3951   0.526E-02    0.244E-02
RMM:  15    -0.445732904472E+02   -0.56480E-04   -0.16897E-04  3382   0.389E-02    0.128E-02
RMM:  16    -0.445733436494E+02   -0.53202E-04   -0.13754E-04  3212   0.253E-02    0.894E-03
RMM:  17    -0.445733703382E+02   -0.26689E-04   -0.88601E-05  3182   0.179E-02    0.757E-03
RMM:  18    -0.445733998896E+02   -0.29551E-04   -0.64786E-05  3011   0.168E-02    0.643E-03
RMM:  19    -0.445734224386E+02   -0.22549E-04   -0.55093E-05  2686   0.119E-02    0.512E-03
RMM:  20    -0.445734427716E+02   -0.20333E-04   -0.39021E-05  2784   0.128E-02    0.556E-03
RMM:  21    -0.445734999328E+02   -0.57161E-04   -0.47324E-05  3158   0.147E-02    0.418E-03
RMM:  22    -0.445735034454E+02   -0.35125E-05   -0.21313E-05  2936   0.161E-02

 ----------------------------------------------------------------------------- 
|                                                                             |
|           W    W    AA    RRRRR   N    N  II  N    N   GGGG   !!!           |
|           W    W   A  A   R    R  NN   N  II  NN   N  G    G  !!!           |
|           W    W  A    A  R    R  N N  N  II  N N  N  G       !!!           |
|           W WW W  AAAAAA  RRRRR   N  N N  II  N  N N  G  GGG   !            |
|           WW  WW  A    A  R   R   N   NN  II  N   NN  G    G                |
|           W    W  A    A  R    R  N    N  II  N    N   GGGG   !!!           |
|                                                                             |
|      Your highest band is occupied at some k-points! Unless you are         |
|      performing a calculation for an insulator or semiconductor, without    |
|      unoccupied bands, you have included TOO FEW BANDS!! Please increase    |
|      the parameter NBANDS in file INCAR to ensure that the highest band   |
|      is unoccupied at all k-points. It is always recommended to             |
|      include a few unoccupied bands to accelerate the convergence of        |
|      molecular dynamics runs (even for insulators or semiconductors).       |
|      Because the presence of unoccupied bands improves wavefunction         |
|      prediction, and helps to suppress 'band-crossings.'                    |
|                                                                             |
 ----------------------------------------------------------------------------- 

   9 F= -.44573503E+02 E0= -.44574143E+02  d E =-.408340E-01  mag=    13.7146
 curvature:  -2.86 expect dE=-0.125E-01 dE for cont linesearch -0.411E-05
 trial: gam= 0.11637 g(F)=  0.437E-02 g(S)=  0.000E+00 ort = 0.210E-03 (trialstep = 0.246E+01)
 search vector abs. value=  0.483E-02
 bond charge predicted
       N       E                     dE             d eps       ncg     rms          rms(c)
DAV:   1    -0.445556158667E+02    0.17884E-01   -0.55205E+00  5084   0.128E+01    0.141E+00
RMM:   2    -0.446294947475E+02   -0.73879E-01   -0.30625E-01  5322   0.422E+00    0.290E+00
RMM:   3    -0.445902014212E+02    0.39293E-01   -0.16044E-01  5099   0.368E+00    0.177E+00
RMM:   4    -0.445847383537E+02    0.54631E-02   -0.43267E-02  5656   0.123E+00    0.739E-01
RMM:   5    -0.445816149268E+02    0.31234E-02   -0.13942E-02  5106   0.112E+00    0.479E-01
RMM:   6    -0.445811418028E+02    0.47312E-03   -0.60523E-03  5676   0.477E-01    0.251E-01
RMM:   7    -0.445811204446E+02    0.21358E-04   -0.29579E-03  5308   0.432E-01    0.246E-01
RMM:   8    -0.445808407418E+02    0.27970E-03   -0.19282E-03  5493   0.298E-01    0.132E-01
RMM:   9    -0.445808825029E+02   -0.41761E-04   -0.10469E-03  5351   0.232E-01    0.731E-02
RMM:  10    -0.445809900288E+02   -0.10753E-03   -0.58041E-04  5807   0.124E-01    0.793E-02
RMM:  11    -0.445810446725E+02   -0.54644E-04   -0.24628E-04  4961   0.855E-02    0.249E-02
RMM:  12    -0.445811116498E+02   -0.66977E-04   -0.17702E-04  4051   0.389E-02    0.224E-02
RMM:  13    -0.445811886470E+02   -0.76997E-04   -0.90667E-05  3352   0.401E-02    0.125E-02
RMM:  14    -0.445812995545E+02   -0.11091E-03   -0.48147E-05  3308   0.233E-02    0.117E-02
RMM:  15    -0.445813727264E+02   -0.73172E-04   -0.58655E-05  3196   0.227E-02    0.659E-03
RMM:  16    -0.445813939190E+02   -0.21193E-04   -0.19237E-05  2998   0.146E-02    0.527E-03
RMM:  17    -0.445814188317E+02   -0.24913E-04   -0.33784E-05  2789   0.147E-02    0.479E-03
RMM:  18    -0.445814445160E+02   -0.25684E-04   -0.10849E-05  2743   0.126E-02    0.307E-03
RMM:  19    -0.445814586807E+02   -0.14165E-04   -0.20181E-05  2202   0.102E-02    0.259E-03
RMM:  20    -0.445814809071E+02   -0.22226E-04   -0.71853E-06  2320   0.101E-02    0.221E-03
RMM:  21    -0.445815044573E+02   -0.23550E-04   -0.15740E-05  2446   0.968E-03    0.201E-03
RMM:  22    -0.445815079794E+02   -0.35222E-05   -0.19907E-06  2193   0.936E-03

 ----------------------------------------------------------------------------- 
|                                                                             |
|           W    W    AA    RRRRR   N    N  II  N    N   GGGG   !!!           |
|           W    W   A  A   R    R  NN   N  II  NN   N  G    G  !!!           |
|           W    W  A    A  R    R  N N  N  II  N N  N  G       !!!           |
|           W WW W  AAAAAA  RRRRR   N  N N  II  N  N N  G  GGG   !            |
|           WW  WW  A    A  R   R   N   NN  II  N   NN  G    G                |
|           W    W  A    A  R    R  N    N  II  N    N   GGGG   !!!           |
|                                                                             |
|      Your highest band is occupied at some k-points! Unless you are         |
|      performing a calculation for an insulator or semiconductor, without    |
|      unoccupied bands, you have included TOO FEW BANDS!! Please increase    |
|      the parameter NBANDS in file INCAR to ensure that the highest band   |
|      is unoccupied at all k-points. It is always recommended to             |
|      include a few unoccupied bands to accelerate the convergence of        |
|      molecular dynamics runs (even for insulators or semiconductors).       |
|      Because the presence of unoccupied bands improves wavefunction         |
|      prediction, and helps to suppress 'band-crossings.'                    |
|                                                                             |
 ----------------------------------------------------------------------------- 

  10 F= -.44581508E+02 E0= -.44582258E+02  d E =-.800453E-02  mag=    13.7178
 trial-energy change:   -0.008005  1 .order   -0.007794   -0.010818   -0.004770
 step:   3.9230(harm=  4.4075)  dis= 0.00575  next Energy=   -44.582964 (dE=-0.946E-02)
 bond charge predicted
       N       E                     dE             d eps       ncg     rms          rms(c)
DAV:   1    -0.445743284144E+02    0.71760E-02   -0.19321E+00  5084   0.753E+00    0.837E-01
RMM:   2    -0.446005934619E+02   -0.26265E-01   -0.10815E-01  5366   0.240E+00    0.173E+00
RMM:   3    -0.445863649380E+02    0.14229E-01   -0.62221E-02  5108   0.219E+00    0.105E+00
RMM:   4    -0.445844125543E+02    0.19524E-02   -0.15467E-02  5715   0.690E-01    0.447E-01
RMM:   5    -0.445832375173E+02    0.11750E-02   -0.50744E-03  5100   0.674E-01    0.316E-01
RMM:   6    -0.445829191251E+02    0.31839E-03   -0.19259E-03  5548   0.297E-01    0.134E-01
RMM:   7    -0.445829432714E+02   -0.24146E-04   -0.10350E-03  5320   0.249E-01    0.142E-01
RMM:   8    -0.445828575749E+02    0.85697E-04   -0.54213E-04  5446   0.167E-01    0.735E-02
RMM:   9    -0.445829260431E+02   -0.68468E-04   -0.39518E-04  5321   0.144E-01    0.716E-02
RMM:  10    -0.445829595601E+02   -0.33517E-04   -0.22341E-04  5311   0.917E-02    0.416E-02
RMM:  11    -0.445830066373E+02   -0.47077E-04   -0.11056E-04  3754   0.504E-02    0.152E-02
RMM:  12    -0.445830357479E+02   -0.29111E-04   -0.63866E-05  3271   0.288E-02    0.137E-02
RMM:  13    -0.445830740954E+02   -0.38348E-04   -0.46180E-05  3128   0.261E-02    0.674E-03
RMM:  14    -0.445831143420E+02   -0.40247E-04   -0.31346E-05  3079   0.146E-02    0.535E-03
RMM:  15    -0.445831503744E+02   -0.36032E-04   -0.32598E-05  2927   0.137E-02    0.382E-03
RMM:  16    -0.445831681432E+02   -0.17769E-04   -0.16780E-05  2643   0.136E-02    0.334E-03
RMM:  17    -0.445831916191E+02   -0.23476E-04   -0.23163E-05  2376   0.111E-02    0.277E-03
RMM:  18    -0.445832034714E+02   -0.11852E-04   -0.10007E-05  2287   0.106E-02    0.197E-03
RMM:  19    -0.445832251758E+02   -0.21704E-04   -0.17478E-05  2526   0.107E-02    0.263E-03
RMM:  20    -0.445832281077E+02   -0.29319E-05   -0.44811E-06  2116   0.979E-03

 ----------------------------------------------------------------------------- 
|                                                                             |
|           W    W    AA    RRRRR   N    N  II  N    N   GGGG   !!!           |
|           W    W   A  A   R    R  NN   N  II  NN   N  G    G  !!!           |
|           W    W  A    A  R    R  N N  N  II  N N  N  G       !!!           |
|           W WW W  AAAAAA  RRRRR   N  N N  II  N  N N  G  GGG   !            |
|           WW  WW  A    A  R   R   N   NN  II  N   NN  G    G                |
|           W    W  A    A  R    R  N    N  II  N    N   GGGG   !!!           |
|                                                                             |
|      Your highest band is occupied at some k-points! Unless you are         |
|      performing a calculation for an insulator or semiconductor, without    |
|      unoccupied bands, you have included TOO FEW BANDS!! Please increase    |
|      the parameter NBANDS in file INCAR to ensure that the highest band   |
|      is unoccupied at all k-points. It is always recommended to             |
|      include a few unoccupied bands to accelerate the convergence of        |
|      molecular dynamics runs (even for insulators or semiconductors).       |
|      Because the presence of unoccupied bands improves wavefunction         |
|      prediction, and helps to suppress 'band-crossings.'                    |
|                                                                             |
 ----------------------------------------------------------------------------- 

  11 F= -.44583228E+02 E0= -.44583983E+02  d E =-.972466E-02  mag=    13.7194
 curvature:  -2.27 expect dE=-0.137E-02 dE for cont linesearch -0.568E-04
 ZBRENT: extrapolating
 opt :   4.2421  next Energy=   -44.583284 (dE=-0.978E-02)
 bond charge predicted
       N       E                     dE             d eps       ncg     rms          rms(c)
DAV:   1    -0.445833135399E+02   -0.88364E-04   -0.93428E-02  5182   0.164E+00    0.197E-01
RMM:   2    -0.445854219377E+02   -0.21084E-02   -0.13653E-02  5358   0.502E-01    0.356E-01
RMM:   3    -0.445866157406E+02   -0.11938E-02   -0.19816E-02  5137   0.455E-01    0.261E-01
RMM:   4    -0.445866231255E+02   -0.73848E-05   -0.38736E-03  5539   0.153E-01    0.187E-01
RMM:   5    -0.445874382570E+02   -0.81513E-03   -0.49045E-03  6181   0.901E-02    0.286E-01
RMM:   6    -0.445873821398E+02    0.56117E-04   -0.27310E-03  5986   0.764E-02    0.312E-01
RMM:   7    -0.445870667226E+02    0.31542E-03   -0.22088E-03  5105   0.223E-01    0.276E-01
RMM:   8    -0.445868832677E+02    0.18345E-03   -0.17205E-03  5625   0.150E-01    0.224E-01
RMM:   9    -0.445868243874E+02    0.58880E-04   -0.74843E-04  4709   0.377E-02    0.211E-01
RMM:  10    -0.445865277009E+02    0.29669E-03   -0.49506E-04  4437   0.722E-02    0.176E-01
RMM:  11    -0.445865038944E+02    0.23807E-04   -0.42712E-04  5027   0.933E-02    0.155E-01
RMM:  12    -0.445869096237E+02   -0.40573E-03   -0.21164E-04  3725   0.472E-02    0.114E-01
RMM:  13    -0.445875382444E+02   -0.62862E-03   -0.20404E-04  4387   0.581E-02    0.711E-02
RMM:  14    -0.445882205983E+02   -0.68235E-03   -0.16363E-04  4755   0.601E-02    0.516E-02
RMM:  15    -0.445886129579E+02   -0.39236E-03   -0.11835E-04  4264   0.609E-02    0.332E-02
RMM:  16    -0.445889583646E+02   -0.34541E-03   -0.10926E-04  4177   0.369E-02    0.179E-02
RMM:  17    -0.445890117970E+02   -0.53432E-04   -0.49466E-05  3207   0.350E-02    0.103E-02
RMM:  18    -0.445890397249E+02   -0.27928E-04   -0.36994E-05  2999   0.259E-02    0.840E-03
RMM:  19    -0.445890463241E+02   -0.65992E-05   -0.17491E-05  2865   0.194E-02

 ----------------------------------------------------------------------------- 
|                                                                             |
|           W    W    AA    RRRRR   N    N  II  N    N   GGGG   !!!           |
|           W    W   A  A   R    R  NN   N  II  NN   N  G    G  !!!           |
|           W    W  A    A  R    R  N N  N  II  N N  N  G       !!!           |
|           W WW W  AAAAAA  RRRRR   N  N N  II  N  N N  G  GGG   !            |
|           WW  WW  A    A  R   R   N   NN  II  N   NN  G    G                |
|           W    W  A    A  R    R  N    N  II  N    N   GGGG   !!!           |
|                                                                             |
|      Your highest band is occupied at some k-points! Unless you are         |
|      performing a calculation for an insulator or semiconductor, without    |
|      unoccupied bands, you have included TOO FEW BANDS!! Please increase    |
|      the parameter NBANDS in file INCAR to ensure that the highest band   |
|      is unoccupied at all k-points. It is always recommended to             |
|      include a few unoccupied bands to accelerate the convergence of        |
|      molecular dynamics runs (even for insulators or semiconductors).       |
|      Because the presence of unoccupied bands improves wavefunction         |
|      prediction, and helps to suppress 'band-crossings.'                    |
|                                                                             |
 ----------------------------------------------------------------------------- 

  12 F= -.44589046E+02 E0= -.44589654E+02  d E =-.155429E-01  mag=    13.8562
 curvature:  -2.22 expect dE=-0.109E-02 dE for cont linesearch -0.107E-06
 trial: gam= 0.08248 g(F)=  0.490E-03 g(S)=  0.000E+00 ort = 0.152E-04 (trialstep = 0.282E+01)
 search vector abs. value=  0.525E-03
 bond charge predicted
       N       E                     dE             d eps       ncg     rms          rms(c)
DAV:   1    -0.445851402928E+02    0.38994E-02   -0.78754E-01  5084   0.488E+00    0.528E-01
RMM:   2    -0.445886462919E+02   -0.35060E-02   -0.13520E-02  5132   0.113E+00    0.426E-01
RMM:   3    -0.445910464975E+02   -0.24002E-02   -0.11815E-02  5118   0.101E+00    0.603E-01
RMM:   4    -0.445891087620E+02    0.19377E-02   -0.27579E-03  5113   0.569E-01    0.160E-01
RMM:   5    -0.445891123342E+02   -0.35723E-05   -0.10806E-03  5587   0.209E-01    0.957E-02
RMM:   6    -0.445890673396E+02    0.44995E-04   -0.73957E-04  6360   0.117E-01    0.828E-02
RMM:   7    -0.445890354868E+02    0.31853E-04   -0.37681E-04  5178   0.157E-01    0.662E-02
RMM:   8    -0.445890574074E+02   -0.21921E-04   -0.24253E-04  5481   0.827E-02    0.604E-02
RMM:   9    -0.445890729461E+02   -0.15539E-04   -0.13084E-04  4749   0.809E-02    0.396E-02
RMM:  10    -0.445890799356E+02   -0.69896E-05   -0.94389E-05  3585   0.462E-02

 ----------------------------------------------------------------------------- 
|                                                                             |
|           W    W    AA    RRRRR   N    N  II  N    N   GGGG   !!!           |
|           W    W   A  A   R    R  NN   N  II  NN   N  G    G  !!!           |
|           W    W  A    A  R    R  N N  N  II  N N  N  G       !!!           |
|           W WW W  AAAAAA  RRRRR   N  N N  II  N  N N  G  GGG   !            |
|           WW  WW  A    A  R   R   N   NN  II  N   NN  G    G                |
|           W    W  A    A  R    R  N    N  II  N    N   GGGG   !!!           |
|                                                                             |
|      Your highest band is occupied at some k-points! Unless you are         |
|      performing a calculation for an insulator or semiconductor, without    |
|      unoccupied bands, you have included TOO FEW BANDS!! Please increase    |
|      the parameter NBANDS in file INCAR to ensure that the highest band   |
|      is unoccupied at all k-points. It is always recommended to             |
|      include a few unoccupied bands to accelerate the convergence of        |
|      molecular dynamics runs (even for insulators or semiconductors).       |
|      Because the presence of unoccupied bands improves wavefunction         |
|      prediction, and helps to suppress 'band-crossings.'                    |
|                                                                             |
 ----------------------------------------------------------------------------- 

  13 F= -.44589080E+02 E0= -.44589629E+02  d E =-.336115E-04  mag=    13.8564
 trial-energy change:   -0.000034  1 .order   -0.000277   -0.001385    0.000832
 step:   1.3009(harm=  1.7615)  dis= 0.00330  next Energy=   -44.589342 (dE=-0.296E-03)
 bond charge predicted
       N       E                     dE             d eps       ncg     rms          rms(c)
DAV:   1    -0.445880339324E+02    0.10390E-02   -0.22867E-01  5084   0.263E+00    0.285E-01
RMM:   2    -0.445893157478E+02   -0.12818E-02   -0.48083E-03  5124   0.682E-01    0.279E-01
RMM:   3    -0.445899661112E+02   -0.65036E-03   -0.45500E-03  5106   0.639E-01    0.345E-01
RMM:   4    -0.445894361641E+02    0.52995E-03   -0.92541E-04  5107   0.335E-01    0.104E-01
RMM:   5    -0.445893992590E+02    0.36905E-04   -0.21707E-04  5276   0.119E-01    0.458E-02
RMM:   6    -0.445894623547E+02   -0.63096E-04   -0.21254E-04  5734   0.754E-02    0.560E-02
RMM:   7    -0.445894547187E+02    0.76359E-05   -0.10637E-04  4837   0.921E-02    0.363E-02
RMM:   8    -0.445894480211E+02    0.66977E-05   -0.65011E-05  4136   0.588E-02

 ----------------------------------------------------------------------------- 
|                                                                             |
|           W    W    AA    RRRRR   N    N  II  N    N   GGGG   !!!           |
|           W    W   A  A   R    R  NN   N  II  NN   N  G    G  !!!           |
|           W    W  A    A  R    R  N N  N  II  N N  N  G       !!!           |
|           W WW W  AAAAAA  RRRRR   N  N N  II  N  N N  G  GGG   !            |
|           WW  WW  A    A  R   R   N   NN  II  N   NN  G    G                |
|           W    W  A    A  R    R  N    N  II  N    N   GGGG   !!!           |
|                                                                             |
|      Your highest band is occupied at some k-points! Unless you are         |
|      performing a calculation for an insulator or semiconductor, without    |
|      unoccupied bands, you have included TOO FEW BANDS!! Please increase    |
|      the parameter NBANDS in file INCAR to ensure that the highest band   |
|      is unoccupied at all k-points. It is always recommended to             |
|      include a few unoccupied bands to accelerate the convergence of        |
|      molecular dynamics runs (even for insulators or semiconductors).       |
|      Because the presence of unoccupied bands improves wavefunction         |
|      prediction, and helps to suppress 'band-crossings.'                    |
|                                                                             |
 ----------------------------------------------------------------------------- 

  14 F= -.44589448E+02 E0= -.44590027E+02  d E =-.401697E-03  mag=    13.8564
 curvature:  -0.76 expect dE=-0.422E-04 dE for cont linesearch -0.313E-04
 ZBRENT: interpolating
 opt :   1.8053  next Energy=   -44.589485 (dE=-0.439E-03)
 bond charge predicted
       N       E                     dE             d eps       ncg     rms          rms(c)
DAV:   1    -0.445893022934E+02    0.15243E-03   -0.24867E-02  5168   0.882E-01    0.963E-02
RMM:   2    -0.445893983721E+02   -0.96079E-04   -0.26364E-04  5114   0.197E-01    0.834E-02
RMM:   3    -0.445895399070E+02   -0.14153E-03   -0.49631E-04  5092   0.194E-01    0.123E-01
RMM:   4    -0.445897339402E+02   -0.19403E-03   -0.11130E-03  4945   0.114E-01    0.657E-02
RMM:   5    -0.445899951526E+02   -0.26121E-03   -0.22561E-03  2766   0.192E-02    0.101E-01
RMM:   6    -0.445901573086E+02   -0.16216E-03   -0.14857E-03  2758   0.249E-02    0.115E-01
RMM:   7    -0.445902532369E+02   -0.95928E-04   -0.10141E-03  2758   0.230E-02    0.118E-01
RMM:   8    -0.445902832121E+02   -0.29975E-04   -0.52352E-04  2832   0.221E-02    0.116E-01
RMM:   9    -0.445903076066E+02   -0.24394E-04   -0.39775E-04  2737   0.169E-02    0.115E-01
RMM:  10    -0.445902873172E+02    0.20289E-04   -0.20478E-04  2801   0.241E-02    0.107E-01
RMM:  11    -0.445902621813E+02    0.25136E-04   -0.16479E-04  2835   0.224E-02    0.975E-02
RMM:  12    -0.445902504553E+02    0.11726E-04   -0.89167E-05  2737   0.203E-02    0.920E-02
RMM:  13    -0.445902307571E+02    0.19698E-04   -0.71288E-05  2753   0.152E-02    0.828E-02
RMM:  14    -0.445902273774E+02    0.33796E-05   -0.41036E-05  2576   0.113E-02

 ----------------------------------------------------------------------------- 
|                                                                             |
|           W    W    AA    RRRRR   N    N  II  N    N   GGGG   !!!           |
|           W    W   A  A   R    R  NN   N  II  NN   N  G    G  !!!           |
|           W    W  A    A  R    R  N N  N  II  N N  N  G       !!!           |
|           W WW W  AAAAAA  RRRRR   N  N N  II  N  N N  G  GGG   !            |
|           WW  WW  A    A  R   R   N   NN  II  N   NN  G    G                |
|           W    W  A    A  R    R  N    N  II  N    N   GGGG   !!!           |
|                                                                             |
|      Your highest band is occupied at some k-points! Unless you are         |
|      performing a calculation for an insulator or semiconductor, without    |
|      unoccupied bands, you have included TOO FEW BANDS!! Please increase    |
|      the parameter NBANDS in file INCAR to ensure that the highest band   |
|      is unoccupied at all k-points. It is always recommended to             |
|      include a few unoccupied bands to accelerate the convergence of        |
|      molecular dynamics runs (even for insulators or semiconductors).       |
|      Because the presence of unoccupied bands improves wavefunction         |
|      prediction, and helps to suppress 'band-crossings.'                    |
|                                                                             |
 ----------------------------------------------------------------------------- 

  15 F= -.44590227E+02 E0= -.44590717E+02  d E =-.118105E-02  mag=    13.8762
 curvature:  -0.90 expect dE=-0.228E-04 dE for cont linesearch -0.735E-07
 ZBRENT: interpolating
 opt :   1.7838  next Energy=   -44.590227 (dE=-0.118E-02)
 bond charge predicted
       N       E                     dE             d eps       ncg     rms          rms(c)
DAV:   1    -0.445967533727E+02   -0.65226E-02   -0.20542E-02  6610   0.488E-02    0.371E-01
RMM:   2    -0.445972906422E+02   -0.53727E-03   -0.24423E-02  5185   0.842E-01    0.557E-01
RMM:   3    -0.445961084080E+02    0.11822E-02   -0.10030E-02  5107   0.822E-01    0.363E-01
RMM:   4    -0.445955847440E+02    0.52366E-03   -0.54605E-03  5277   0.410E-01    0.316E-01
RMM:   5    -0.445947298911E+02    0.85485E-03   -0.12147E-03  5101   0.326E-01    0.137E-01
RMM:   6    -0.445940535349E+02    0.67636E-03   -0.11161E-03  5570   0.213E-01    0.155E-01
RMM:   7    -0.445938690282E+02    0.18451E-03   -0.54233E-04  5152   0.218E-01    0.102E-01
RMM:   8    -0.445946527787E+02   -0.78375E-03   -0.45212E-04  5495   0.142E-01    0.857E-02
RMM:   9    -0.445956613109E+02   -0.10085E-02   -0.18261E-04  5134   0.118E-01    0.691E-02
RMM:  10    -0.445962310690E+02   -0.56976E-03   -0.10063E-04  4835   0.802E-02    0.438E-02
RMM:  11    -0.445978011602E+02   -0.15701E-02   -0.98301E-05  4820   0.607E-02    0.370E-02
RMM:  12    -0.445987845085E+02   -0.98335E-03   -0.10272E-04  5052   0.728E-02    0.351E-02
RMM:  13    -0.445992205135E+02   -0.43600E-03   -0.63098E-05  4217   0.545E-02    0.239E-02
RMM:  14    -0.445993285475E+02   -0.10803E-03   -0.47550E-05  3680   0.399E-02    0.897E-03
RMM:  15    -0.445993038024E+02    0.24745E-04   -0.12622E-05  2873   0.265E-02    0.453E-03
RMM:  16    -0.445993083964E+02   -0.45940E-05   -0.87422E-06  2772   0.177E-02

 ----------------------------------------------------------------------------- 
|                                                                             |
|           W    W    AA    RRRRR   N    N  II  N    N   GGGG   !!!           |
|           W    W   A  A   R    R  NN   N  II  NN   N  G    G  !!!           |
|           W    W  A    A  R    R  N N  N  II  N N  N  G       !!!           |
|           W WW W  AAAAAA  RRRRR   N  N N  II  N  N N  G  GGG   !            |
|           WW  WW  A    A  R   R   N   NN  II  N   NN  G    G                |
|           W    W  A    A  R    R  N    N  II  N    N   GGGG   !!!           |
|                                                                             |
|      Your highest band is occupied at some k-points! Unless you are         |
|      performing a calculation for an insulator or semiconductor, without    |
|      unoccupied bands, you have included TOO FEW BANDS!! Please increase    |
|      the parameter NBANDS in file INCAR to ensure that the highest band   |
|      is unoccupied at all k-points. It is always recommended to             |
|      include a few unoccupied bands to accelerate the convergence of        |
|      molecular dynamics runs (even for insulators or semiconductors).       |
|      Because the presence of unoccupied bands improves wavefunction         |
|      prediction, and helps to suppress 'band-crossings.'                    |
|                                                                             |
 ----------------------------------------------------------------------------- 

  16 F= -.44599308E+02 E0= -.44599742E+02  d E =-.102621E-01  mag=    13.9884
 curvature:  -0.86 expect dE=-0.508E-04 dE for cont linesearch -0.384E-06
 ZBRENT: bisectioning
 opt :   1.5423  next Energy=   -44.599324 (dE=-0.103E-01)
 bond charge predicted
       N       E                     dE             d eps       ncg     rms          rms(c)
DAV:   1    -0.445992789756E+02    0.24827E-04   -0.57813E-03  5238   0.418E-01    0.459E-02
RMM:   2    -0.445993121757E+02   -0.33200E-04   -0.12995E-04  5100   0.111E-01    0.442E-02
RMM:   3    -0.445993350877E+02   -0.22912E-04   -0.11678E-04  5004   0.102E-01    0.548E-02
RMM:   4    -0.445993189183E+02    0.16169E-04   -0.23615E-05  3000   0.539E-02    0.156E-02
RMM:   5    -0.445993201498E+02   -0.12315E-05   -0.68191E-06  2694   0.220E-02

 ----------------------------------------------------------------------------- 
|                                                                             |
|           W    W    AA    RRRRR   N    N  II  N    N   GGGG   !!!           |
|           W    W   A  A   R    R  NN   N  II  NN   N  G    G  !!!           |
|           W    W  A    A  R    R  N N  N  II  N N  N  G       !!!           |
|           W WW W  AAAAAA  RRRRR   N  N N  II  N  N N  G  GGG   !            |
|           WW  WW  A    A  R   R   N   NN  II  N   NN  G    G                |
|           W    W  A    A  R    R  N    N  II  N    N   GGGG   !!!           |
|                                                                             |
|      Your highest band is occupied at some k-points! Unless you are         |
|      performing a calculation for an insulator or semiconductor, without    |
|      unoccupied bands, you have included TOO FEW BANDS!! Please increase    |
|      the parameter NBANDS in file INCAR to ensure that the highest band   |
|      is unoccupied at all k-points. It is always recommended to             |
|      include a few unoccupied bands to accelerate the convergence of        |
|      molecular dynamics runs (even for insulators or semiconductors).       |
|      Because the presence of unoccupied bands improves wavefunction         |
|      prediction, and helps to suppress 'band-crossings.'                    |
|                                                                             |
 ----------------------------------------------------------------------------- 

  17 F= -.44599320E+02 E0= -.44599757E+02  d E =-.102738E-01  mag=    13.9887
 curvature: -34.93 expect dE=-0.235E-02 dE for cont linesearch -0.265E-03
 ZBRENT: interpolating
 opt :   1.7368  next Energy=   -44.599309 (dE=-0.103E-01)
 bond charge predicted
       N       E                     dE             d eps       ncg     rms          rms(c)
DAV:   1    -0.445993092753E+02    0.96430E-05   -0.37411E-03  5126   0.338E-01    0.383E-02
RMM:   2    -0.445993444778E+02   -0.35203E-04   -0.14287E-04  5084   0.110E-01    0.560E-02
RMM:   3    -0.445993448999E+02   -0.42215E-06   -0.10110E-04  4956   0.102E-01    0.372E-02
RMM:   4    -0.445993475045E+02   -0.26045E-05   -0.10886E-05  2651   0.378E-02

 ----------------------------------------------------------------------------- 
|                                                                             |
|           W    W    AA    RRRRR   N    N  II  N    N   GGGG   !!!           |
|           W    W   A  A   R    R  NN   N  II  NN   N  G    G  !!!           |
|           W    W  A    A  R    R  N N  N  II  N N  N  G       !!!           |
|           W WW W  AAAAAA  RRRRR   N  N N  II  N  N N  G  GGG   !            |
|           WW  WW  A    A  R   R   N   NN  II  N   NN  G    G                |
|           W    W  A    A  R    R  N    N  II  N    N   GGGG   !!!           |
|                                                                             |
|      Your highest band is occupied at some k-points! Unless you are         |
|      performing a calculation for an insulator or semiconductor, without    |
|      unoccupied bands, you have included TOO FEW BANDS!! Please increase    |
|      the parameter NBANDS in file INCAR to ensure that the highest band   |
|      is unoccupied at all k-points. It is always recommended to             |
|      include a few unoccupied bands to accelerate the convergence of        |
|      molecular dynamics runs (even for insulators or semiconductors).       |
|      Because the presence of unoccupied bands improves wavefunction         |
|      prediction, and helps to suppress 'band-crossings.'                    |
|                                                                             |
 ----------------------------------------------------------------------------- 

  18 F= -.44599348E+02 E0= -.44599779E+02  d E =-.103012E-01  mag=    13.9888
 curvature:  -0.05 expect dE=-0.285E-05 dE for cont linesearch -0.718E-08
 trial: gam= 0.14215 g(F)=  0.601E-04 g(S)=  0.000E+00 ort =-0.893E-05 (trialstep = 0.260E+01)
 search vector abs. value=  0.682E-04
 bond charge predicted
       N       E                     dE             d eps       ncg     rms          rms(c)
DAV:   1    -0.445990064048E+02    0.33850E-03   -0.85324E-02  5084   0.161E+00    0.179E-01
RMM:   2    -0.445997153281E+02   -0.70892E-03   -0.29949E-03  5249   0.482E-01    0.270E-01
RMM:   3    -0.445996448910E+02    0.70437E-04   -0.22089E-03  5089   0.447E-01    0.228E-01
RMM:   4    -0.445994761051E+02    0.16879E-03   -0.46001E-04  5171   0.203E-01    0.116E-01
RMM:   5    -0.445994141386E+02    0.61967E-04   -0.12018E-04  4877   0.108E-01    0.309E-02
RMM:   6    -0.445994256760E+02   -0.11537E-04   -0.11539E-04  4749   0.628E-02    0.344E-02
RMM:   7    -0.445994294698E+02   -0.37938E-05   -0.57067E-05  3863   0.565E-02

 ----------------------------------------------------------------------------- 
|                                                                             |
|           W    W    AA    RRRRR   N    N  II  N    N   GGGG   !!!           |
|           W    W   A  A   R    R  NN   N  II  NN   N  G    G  !!!           |
|           W    W  A    A  R    R  N N  N  II  N N  N  G       !!!           |
|           W WW W  AAAAAA  RRRRR   N  N N  II  N  N N  G  GGG   !            |
|           WW  WW  A    A  R   R   N   NN  II  N   NN  G    G                |
|           W    W  A    A  R    R  N    N  II  N    N   GGGG   !!!           |
|                                                                             |
|      Your highest band is occupied at some k-points! Unless you are         |
|      performing a calculation for an insulator or semiconductor, without    |
|      unoccupied bands, you have included TOO FEW BANDS!! Please increase    |
|      the parameter NBANDS in file INCAR to ensure that the highest band   |
|      is unoccupied at all k-points. It is always recommended to             |
|      include a few unoccupied bands to accelerate the convergence of        |
|      molecular dynamics runs (even for insulators or semiconductors).       |
|      Because the presence of unoccupied bands improves wavefunction         |
|      prediction, and helps to suppress 'band-crossings.'                    |
|                                                                             |
 ----------------------------------------------------------------------------- 

  19 F= -.44599429E+02 E0= -.44599810E+02  d E =-.819654E-04  mag=    13.9891
 trial-energy change:   -0.000082  1 .order   -0.000064   -0.000153    0.000026
 step:   2.2289(harm=  2.2289)  dis= 0.00270  next Energy=   -44.599413 (dE=-0.656E-04)
 bond charge predicted
       N       E                     dE             d eps       ncg     rms          rms(c)
DAV:   1    -0.445994208880E+02    0.47880E-05   -0.17969E-03  5154   0.249E-01    0.311E-02
RMM:   2    -0.445994768843E+02   -0.55996E-04   -0.23421E-04  5163   0.127E-01    0.945E-02
RMM:   3    -0.445994335316E+02    0.43353E-04   -0.76983E-05  4627   0.932E-02    0.240E-02
RMM:   4    -0.445994393423E+02   -0.58107E-05   -0.22998E-05  2907   0.380E-02

 ----------------------------------------------------------------------------- 
|                                                                             |
|           W    W    AA    RRRRR   N    N  II  N    N   GGGG   !!!           |
|           W    W   A  A   R    R  NN   N  II  NN   N  G    G  !!!           |
|           W    W  A    A  R    R  N N  N  II  N N  N  G       !!!           |
|           W WW W  AAAAAA  RRRRR   N  N N  II  N  N N  G  GGG   !            |
|           WW  WW  A    A  R   R   N   NN  II  N   NN  G    G                |
|           W    W  A    A  R    R  N    N  II  N    N   GGGG   !!!           |
|                                                                             |
|      Your highest band is occupied at some k-points! Unless you are         |
|      performing a calculation for an insulator or semiconductor, without    |
|      unoccupied bands, you have included TOO FEW BANDS!! Please increase    |
|      the parameter NBANDS in file INCAR to ensure that the highest band   |
|      is unoccupied at all k-points. It is always recommended to             |
|      include a few unoccupied bands to accelerate the convergence of        |
|      molecular dynamics runs (even for insulators or semiconductors).       |
|      Because the presence of unoccupied bands improves wavefunction         |
|      prediction, and helps to suppress 'band-crossings.'                    |
|                                                                             |
 ----------------------------------------------------------------------------- 

  20 F= -.44599439E+02 E0= -.44599830E+02  d E =-.918378E-04  mag=    13.9891
 curvature:  -1.29 expect dE=-0.278E-04 dE for cont linesearch -0.140E-06
 trial: gam= 0.14200 g(F)=  0.215E-04 g(S)=  0.000E+00 ort = 0.272E-05 (trialstep = 0.253E+01)
 search vector abs. value=  0.237E-04
 bond charge predicted
       N       E                     dE             d eps       ncg     rms          rms(c)
DAV:   1    -0.445993069119E+02    0.12662E-03   -0.28163E-02  5084   0.921E-01    0.107E-01
RMM:   2    -0.445994320657E+02   -0.12515E-03   -0.53611E-04  5165   0.219E-01    0.103E-01
RMM:   3    -0.445995690566E+02   -0.13699E-03   -0.65295E-04  5135   0.214E-01    0.159E-01
RMM:   4    -0.445994343282E+02    0.13473E-03   -0.14806E-04  5004   0.128E-01    0.358E-02
RMM:   5    -0.445994310947E+02    0.32335E-05   -0.31693E-05  3167   0.422E-02

 ----------------------------------------------------------------------------- 
|                                                                             |
|           W    W    AA    RRRRR   N    N  II  N    N   GGGG   !!!           |
|           W    W   A  A   R    R  NN   N  II  NN   N  G    G  !!!           |
|           W    W  A    A  R    R  N N  N  II  N N  N  G       !!!           |
|           W WW W  AAAAAA  RRRRR   N  N N  II  N  N N  G  GGG   !            |
|           WW  WW  A    A  R   R   N   NN  II  N   NN  G    G                |
|           W    W  A    A  R    R  N    N  II  N    N   GGGG   !!!           |
|                                                                             |
|      Your highest band is occupied at some k-points! Unless you are         |
|      performing a calculation for an insulator or semiconductor, without    |
|      unoccupied bands, you have included TOO FEW BANDS!! Please increase    |
|      the parameter NBANDS in file INCAR to ensure that the highest band   |
|      is unoccupied at all k-points. It is always recommended to             |
|      include a few unoccupied bands to accelerate the convergence of        |
|      molecular dynamics runs (even for insulators or semiconductors).       |
|      Because the presence of unoccupied bands improves wavefunction         |
|      prediction, and helps to suppress 'band-crossings.'                    |
|                                                                             |
 ----------------------------------------------------------------------------- 

  21 F= -.44599431E+02 E0= -.44599819E+02  d E =0.824763E-05  mag=    13.9893
 trial-energy change:    0.000008  1 .order   -0.000029   -0.000055   -0.000003
 step:   2.6702(harm=  2.6702)  dis= 0.00181  next Energy=   -44.599469 (dE=-0.293E-04)
 bond charge predicted
       N       E                     dE             d eps       ncg     rms          rms(c)
DAV:   1    -0.445994204071E+02    0.13921E-04   -0.13815E-04  6904   0.712E-02    0.211E-02
RMM:   2    -0.445994674727E+02   -0.47066E-04   -0.22698E-04  5205   0.113E-01    0.101E-01
RMM:   3    -0.445994145740E+02    0.52899E-04   -0.50538E-05  4055   0.770E-02    0.195E-02
RMM:   4    -0.445994174445E+02   -0.28706E-05   -0.16481E-05  2678   0.311E-02

 ----------------------------------------------------------------------------- 
|                                                                             |
|           W    W    AA    RRRRR   N    N  II  N    N   GGGG   !!!           |
|           W    W   A  A   R    R  NN   N  II  NN   N  G    G  !!!           |
|           W    W  A    A  R    R  N N  N  II  N N  N  G       !!!           |
|           W WW W  AAAAAA  RRRRR   N  N N  II  N  N N  G  GGG   !            |
|           WW  WW  A    A  R   R   N   NN  II  N   NN  G    G                |
|           W    W  A    A  R    R  N    N  II  N    N   GGGG   !!!           |
|                                                                             |
|      Your highest band is occupied at some k-points! Unless you are         |
|      performing a calculation for an insulator or semiconductor, without    |
|      unoccupied bands, you have included TOO FEW BANDS!! Please increase    |
|      the parameter NBANDS in file INCAR to ensure that the highest band   |
|      is unoccupied at all k-points. It is always recommended to             |
|      include a few unoccupied bands to accelerate the convergence of        |
|      molecular dynamics runs (even for insulators or semiconductors).       |
|      Because the presence of unoccupied bands improves wavefunction         |
|      prediction, and helps to suppress 'band-crossings.'                    |
|                                                                             |
 ----------------------------------------------------------------------------- 

  22 F= -.44599417E+02 E0= -.44599806E+02  d E =0.218978E-04  mag=    13.9893
 curvature:  -1.44 expect dE=-0.158E-04 dE for cont linesearch -0.532E-06
 ZBRENT: increasing intervall
 opt :   2.9541  next Energy=   -44.599419 (dE= 0.205E-04)
 bond charge predicted
       N       E                     dE             d eps       ncg     rms          rms(c)
DAV:   1    -0.445994192004E+02   -0.46264E-05   -0.36227E-04  5140   0.112E-01    0.143E-02
RMM:   2    -0.445994226365E+02   -0.34361E-05   -0.17056E-05  2760   0.427E-02    0.346E-02
RMM:   3    -0.445994232526E+02   -0.61612E-06   -0.16401E-05  2626   0.489E-02    0.151E-02
RMM:   4    -0.445994247036E+02   -0.14510E-05   -0.32676E-06  2550   0.185E-02

 ----------------------------------------------------------------------------- 
|                                                                             |
|           W    W    AA    RRRRR   N    N  II  N    N   GGGG   !!!           |
|           W    W   A  A   R    R  NN   N  II  NN   N  G    G  !!!           |
|           W    W  A    A  R    R  N N  N  II  N N  N  G       !!!           |
|           W WW W  AAAAAA  RRRRR   N  N N  II  N  N N  G  GGG   !            |
|           WW  WW  A    A  R   R   N   NN  II  N   NN  G    G                |
|           W    W  A    A  R    R  N    N  II  N    N   GGGG   !!!           |
|                                                                             |
|      Your highest band is occupied at some k-points! Unless you are         |
|      performing a calculation for an insulator or semiconductor, without    |
|      unoccupied bands, you have included TOO FEW BANDS!! Please increase    |
|      the parameter NBANDS in file INCAR to ensure that the highest band   |
|      is unoccupied at all k-points. It is always recommended to             |
|      include a few unoccupied bands to accelerate the convergence of        |
|      molecular dynamics runs (even for insulators or semiconductors).       |
|      Because the presence of unoccupied bands improves wavefunction         |
|      prediction, and helps to suppress 'band-crossings.'                    |
|                                                                             |
 ----------------------------------------------------------------------------- 

  23 F= -.44599425E+02 E0= -.44599812E+02  d E =0.146386E-04  mag=    13.9894
 curvature:  -3.65 expect dE=-0.533E-04 dE for cont linesearch -0.696E-07
 trial: gam= 0.77840 g(F)=  0.146E-04 g(S)=  0.000E+00 ort =-0.672E-06 (trialstep = 0.222E+01)
 search vector abs. value=  0.279E-04
 bond charge predicted
       N       E                     dE             d eps       ncg     rms          rms(c)
DAV:   1    -0.445993101440E+02    0.11311E-03   -0.25569E-02  5084   0.871E-01    0.102E-01
RMM:   2    -0.445995189363E+02   -0.20879E-03   -0.88875E-04  5295   0.247E-01    0.162E-01
RMM:   3    -0.445994889680E+02    0.29968E-04   -0.75144E-04  5107   0.247E-01    0.141E-01
RMM:   4    -0.445994314830E+02    0.57485E-04   -0.12463E-04  4919   0.110E-01    0.539E-02
RMM:   5    -0.445994184125E+02    0.13070E-04   -0.30085E-05  3307   0.575E-02    0.150E-02
RMM:   6    -0.445994231729E+02   -0.47604E-05   -0.12882E-05  2585   0.245E-02

 ----------------------------------------------------------------------------- 
|                                                                             |
|           W    W    AA    RRRRR   N    N  II  N    N   GGGG   !!!           |
|           W    W   A  A   R    R  NN   N  II  NN   N  G    G  !!!           |
|           W    W  A    A  R    R  N N  N  II  N N  N  G       !!!           |
|           W WW W  AAAAAA  RRRRR   N  N N  II  N  N N  G  GGG   !            |
|           WW  WW  A    A  R   R   N   NN  II  N   NN  G    G                |
|           W    W  A    A  R    R  N    N  II  N    N   GGGG   !!!           |
|                                                                             |
|      Your highest band is occupied at some k-points! Unless you are         |
|      performing a calculation for an insulator or semiconductor, without    |
|      unoccupied bands, you have included TOO FEW BANDS!! Please increase    |
|      the parameter NBANDS in file INCAR to ensure that the highest band   |
|      is unoccupied at all k-points. It is always recommended to             |
|      include a few unoccupied bands to accelerate the convergence of        |
|      molecular dynamics runs (even for insulators or semiconductors).       |
|      Because the presence of unoccupied bands improves wavefunction         |
|      prediction, and helps to suppress 'band-crossings.'                    |
|                                                                             |
 ----------------------------------------------------------------------------- 

  24 F= -.44599423E+02 E0= -.44599816E+02  d E =0.153071E-05  mag=    13.9897
 trial-energy change:    0.000002  1 .order   -0.000021   -0.000031   -0.000010
 step:   3.2553(harm=  3.2553)  dis= 0.00269  next Energy=   -44.599448 (dE=-0.229E-04)
 reached required accuracy - stopping structural energy minimisation
