 vasp.5.3.3 18Dez12 (build Sep  7 2015 22:32:56) complex                        
  
 executed on             LinuxIFC date 2022.12.02  15:50:36
 running on    1 total cores
 distrk:  each k-point on    1 cores,    1 groups
 distr:  one band on NCORES_PER_BAND=   1 cores,    1 groups


--------------------------------------------------------------------------------------------------------


 INCAR:
 POTCAR:    PAW_PBE Fe 06Sep2000                  
 POTCAR:    PAW_PBE Fe 06Sep2000                  
   VRHFIN =Fe:  d7 s1                                                           
   LEXCH  = PE                                                                  
   EATOM  =   594.3153 eV,   43.6809 Ry                                         
                                                                                
   TITEL  = PAW_PBE Fe 06Sep2000                                                
   LULTRA =        F    use ultrasoft PP ?                                      
   IUNSCR =        1    unscreen: 0-lin 1-nonlin 2-no                           
   RPACOR =    2.000    partial core radius                                     
   POMASS =   55.847; ZVAL   =    8.000    mass and valenz                      
   RCORE  =    2.300    outmost cutoff radius                                   
   RWIGS  =    2.460; RWIGS  =    1.302    wigner-seitz radius (au A)           
   ENMAX  =  267.882; ENMIN  =  200.911 eV                                      
   RCLOC  =    1.701    cutoff for local pot                                    
   LCOR   =        T    correct aug charges                                     
   LPAW   =        T    paw PP                                                  
   EAUG   =  511.368                                                            
   DEXC   =    0.000                                                            
   RMAX   =    2.356    core radius for proj-oper                               
   RAUG   =    1.300    factor for augmentation sphere                          
   RDEP   =    2.442    radius for radial grids                                 
   RDEPT  =    1.890    core radius for aug-charge                              
                                                                                
   Atomic configuration                                                         
    9 entries                                                                   
     n  l   j            E        occ.                                          
     1  0  0.50     -6993.8440   2.0000                                         
     2  0  0.50      -814.6047   2.0000                                         
     2  1  1.50      -693.3689   6.0000                                         
     3  0  0.50       -89.4732   2.0000                                         
     3  1  1.50       -55.6373   6.0000                                         
     3  2  2.50        -3.8151   7.0000                                         
     4  0  0.50        -4.2551   1.0000                                         
     4  1  1.50        -3.4015   0.0000                                         
     4  3  2.50        -1.3606   0.0000                                         
   Description                                                                  
     l       E           TYP  RCUT    TYP  RCUT                                 
     2     -3.8151135     23  2.300                                             
     2     -5.1756961     23  2.300                                             
     0     -4.2550963     23  2.300                                             
     0      7.2035603     23  2.300                                             
     1     -2.7211652     23  2.300                                             
     1     18.4316424     23  2.300                                             
  local pseudopotential read in
  partial core-charges read in
  partial kinetic energy density read in
  atomic valenz-charges read in
  non local Contribution for L=           2  read in
    real space projection operators read in
  non local Contribution for L=           2  read in
    real space projection operators read in
  non local Contribution for L=           0  read in
    real space projection operators read in
  non local Contribution for L=           0  read in
    real space projection operators read in
  non local Contribution for L=           1  read in
    real space projection operators read in
  non local Contribution for L=           1  read in
    real space projection operators read in
    PAW grid and wavefunctions read in
 
   number of l-projection  operators is LMAX  =           6
   number of lm-projection operators is LMMAX =          18
 
  PAW_PBE Fe 06Sep2000                  :
 energy of atom  1       EATOM= -594.3153
 kinetic energy error for atom=    0.0205 (will be added to EATOM!!)
 
 
 POSCAR: header                                  
  positions in cartesian coordinates
  No initial velocities read in
 exchange correlation table for  LEXCH =        8
   RHO(1)=    0.500       N(1)  =     2000
   RHO(2)=  100.500       N(2)  =     4000
 


--------------------------------------------------------------------------------------------------------


 ion  position               nearest neighbor table
   1  0.000  0.000  0.000-   2 2.44   2 2.44   2 2.44   4 2.44   3 2.82   3 2.82   3 2.82
   2  0.333  0.333  0.045-   3 2.44   3 2.44   1 2.44   1 2.44   1 2.44   5 2.44   3 2.44   4 2.82
                             4 2.82   4 2.82
   3  0.667  0.667  0.090-   2 2.44   2 2.44   4 2.44   4 2.44   6 2.44   2 2.44   4 2.44   1 2.82
                             5 2.82   1 2.82   5 2.82   1 2.82   5 2.82
   4  0.000  0.000  0.136-   3 2.44   3 2.44   5 2.44   5 2.44   5 2.44   1 2.44   3 2.44   6 2.82
                             2 2.82   2 2.82   6 2.82   6 2.82   2 2.82
   5  0.334  0.333  0.181-   6 2.44   4 2.44   4 2.44   6 2.44   6 2.44   4 2.44   2 2.44   3 2.82
                             3 2.82   3 2.82
   6  0.667  0.667  0.226-   5 2.44   5 2.44   5 2.44   3 2.44   4 2.82   4 2.82   4 2.82
 
  LATTYP: Found a hexagonal cell.
 ALAT       =     3.9865121710
 C/A-ratio  =     4.5152251462
  
  Lattice vectors:
  
 A1 = (   1.9932560900,  -3.4524208100,   0.0000000000)
 A2 = (  -3.9865121700,   0.0000000000,   0.0000000000)
 A3 = (   0.0000000000,   0.0000000000, -18.0000000000)


Analysis of symmetry for initial positions (statically):
=====================================================================
 Subroutine PRICEL returns:
 Original cell was already a primitive cell.
 

 Routine SETGRP: Setting up the symmetry group for a 
 hexagonal supercell.


 Subroutine GETGRP returns: Found  1 space group operations
 (whereof  1 operations were pure point group operations)
 out of a pool of 24 trial point group operations.


The static configuration has the point symmetry C_1 .


Analysis of symmetry for dynamics (positions and initial velocities):
=====================================================================
 Subroutine PRICEL returns:
 Original cell was already a primitive cell.
 

 Routine SETGRP: Setting up the symmetry group for a 
 hexagonal supercell.


 Subroutine GETGRP returns: Found  1 space group operations
 (whereof  1 operations were pure point group operations)
 out of a pool of 24 trial point group operations.


The dynamic configuration has the point symmetry C_1 .


Analysis of constrained symmetry for selective dynamics:
=====================================================================
 Subroutine PRICEL returns:
 Original cell was already a primitive cell.
 

 Routine SETGRP: Setting up the symmetry group for a 
 hexagonal supercell.


 Subroutine GETGRP returns: Found  1 space group operations
 (whereof  1 operations were pure point group operations)
 out of a pool of 24 trial point group operations.


The constrained configuration has the point symmetry C_1 .


Analysis of magnetic symmetry:
=====================================================================

 Subroutine MAGSYM returns: Found  1 space group operations
 (whereof  1 operations were pure point group operations)
 out of a pool of  1 trial space group operations
 (whereof  1 operations were pure point group operations)
 and found also     1 'primitive' translations


The magnetic configuration has the point symmetry C_1 .


 irot  :   1
 --------------------------------------------------------------------
 isymop:   1   0   0
           0   1   0
           0   0   1

 gtrans:     0.0000000     0.0000000     0.0000000

 ptrans:     0.0000000     0.0000000     0.0000000
 rotmap:
 (   1->   1)  (   2->   2)  (   3->   3)  (   4->   4)  (   5->   5) 
 (   6->   6) 
 
 
 KPOINTS: K-Points                                

Automatic generation of k-mesh.
Space group operators:
 irot       det(A)        alpha          n_x          n_y          n_z        tau_x        tau_y        tau_z
    1     1.000000     0.000000     1.000000     0.000000     0.000000     0.000000     0.000000     0.000000
 
 Subroutine IBZKPT returns following result:
 ===========================================
 
 Found     41 irreducible k-points:
 
 Following reciprocal coordinates:
            Coordinates               Weight
  0.000000  0.000000  0.000000      1.000000
  0.111111  0.000000  0.000000      2.000000
  0.222222  0.000000  0.000000      2.000000
  0.333333  0.000000  0.000000      2.000000
  0.444444  0.000000  0.000000      2.000000
  0.000000  0.111111  0.000000      2.000000
  0.111111  0.111111  0.000000      2.000000
  0.222222  0.111111  0.000000      2.000000
  0.333333  0.111111  0.000000      2.000000
  0.444444  0.111111  0.000000      2.000000
 -0.444444  0.111111  0.000000      2.000000
 -0.333333  0.111111  0.000000      2.000000
 -0.222222  0.111111  0.000000      2.000000
 -0.111111  0.111111  0.000000      2.000000
  0.000000  0.222222  0.000000      2.000000
  0.111111  0.222222  0.000000      2.000000
  0.222222  0.222222  0.000000      2.000000
  0.333333  0.222222  0.000000      2.000000
  0.444444  0.222222  0.000000      2.000000
 -0.444444  0.222222  0.000000      2.000000
 -0.333333  0.222222  0.000000      2.000000
 -0.222222  0.222222  0.000000      2.000000
 -0.111111  0.222222  0.000000      2.000000
  0.000000  0.333333  0.000000      2.000000
  0.111111  0.333333  0.000000      2.000000
  0.222222  0.333333  0.000000      2.000000
  0.333333  0.333333  0.000000      2.000000
  0.444444  0.333333  0.000000      2.000000
 -0.444444  0.333333  0.000000      2.000000
 -0.333333  0.333333  0.000000      2.000000
 -0.222222  0.333333  0.000000      2.000000
 -0.111111  0.333333  0.000000      2.000000
  0.000000  0.444444  0.000000      2.000000
  0.111111  0.444444  0.000000      2.000000
  0.222222  0.444444  0.000000      2.000000
  0.333333  0.444444  0.000000      2.000000
  0.444444  0.444444  0.000000      2.000000
 -0.444444  0.444444  0.000000      2.000000
 -0.333333  0.444444  0.000000      2.000000
 -0.222222  0.444444  0.000000      2.000000
 -0.111111  0.444444  0.000000      2.000000
 
 Following cartesian coordinates:
            Coordinates               Weight
  0.000000  0.000000  0.000000      1.000000
  0.027872 -0.016092  0.000000      2.000000
  0.055744 -0.032184  0.000000      2.000000
  0.083615 -0.048275  0.000000      2.000000
  0.111487 -0.064367  0.000000      2.000000
  0.000000  0.032184  0.000000      2.000000
  0.027872  0.016092  0.000000      2.000000
  0.055744  0.000000  0.000000      2.000000
  0.083615 -0.016092  0.000000      2.000000
  0.111487 -0.032184  0.000000      2.000000
 -0.111487  0.096551  0.000000      2.000000
 -0.083615  0.080459  0.000000      2.000000
 -0.055744  0.064367  0.000000      2.000000
 -0.027872  0.048275  0.000000      2.000000
  0.000000  0.064367  0.000000      2.000000
  0.027872  0.048275  0.000000      2.000000
  0.055744  0.032184  0.000000      2.000000
  0.083615  0.016092  0.000000      2.000000
  0.111487  0.000000  0.000000      2.000000
 -0.111487  0.128734  0.000000      2.000000
 -0.083615  0.112642  0.000000      2.000000
 -0.055744  0.096551  0.000000      2.000000
 -0.027872  0.080459  0.000000      2.000000
  0.000000  0.096551  0.000000      2.000000
  0.027872  0.080459  0.000000      2.000000
  0.055744  0.064367  0.000000      2.000000
  0.083615  0.048275  0.000000      2.000000
  0.111487  0.032184  0.000000      2.000000
 -0.111487  0.160918  0.000000      2.000000
 -0.083615  0.144826  0.000000      2.000000
 -0.055744  0.128734  0.000000      2.000000
 -0.027872  0.112642  0.000000      2.000000
  0.000000  0.128734  0.000000      2.000000
  0.027872  0.112642  0.000000      2.000000
  0.055744  0.096551  0.000000      2.000000
  0.083615  0.080459  0.000000      2.000000
  0.111487  0.064367  0.000000      2.000000
 -0.111487  0.193101  0.000000      2.000000
 -0.083615  0.177009  0.000000      2.000000
 -0.055744  0.160918  0.000000      2.000000
 -0.027872  0.144826  0.000000      2.000000
 


--------------------------------------------------------------------------------------------------------




 Dimension of arrays:
   k-points           NKPTS =     41   k-points in BZ     NKDIM =     41   number of bands    NBANDS=     31
   number of dos      NEDOS =    301   number of ions     NIONS =      6
   non local maximal  LDIM  =      6   non local SUM 2l+1 LMDIM =     18
   total plane-waves  NPLWV =  27216
   max r-space proj   IRMAX =      1   max aug-charges    IRDMAX=   4112
   dimension x,y,z NGX =    18 NGY =   18 NGZ =   84
   dimension x,y,z NGXF=    36 NGYF=   36 NGZF=  168
   support grid    NGXF=    36 NGYF=   36 NGZF=  168
   ions per type =               6
 NGX,Y,Z   is equivalent  to a cutoff of   7.51,  7.51,  7.76 a.u.
 NGXF,Y,Z  is equivalent  to a cutoff of  15.01, 15.01, 15.52 a.u.


 I would recommend the setting:
   dimension x,y,z NGX =    18 NGY =   18 NGZ =   82
 SYSTEM =  Crystal                                 
 POSCAR =  header                                  

 Startparameter for this run:
   NWRITE =      2    write-flag & timer
   PREC   = normal    normal or accurate (medium, high low for compatibility)
   ISTART =      0    job   : 0-new  1-cont  2-samecut
   ICHARG =      2    charge: 1-file 2-atom 10-const
   ISPIN  =      2    spin polarized calculation?
   LNONCOLLINEAR =      F non collinear calculations
   LSORBIT =      F    spin-orbit coupling
   INIWAV =      1    electr: 0-lowe 1-rand  2-diag
   LASPH  =      F    aspherical Exc in radial PAW
   METAGGA=      F    non-selfconsistent MetaGGA calc.

 Electronic Relaxation 1
   ENCUT  =  350.0 eV  25.72 Ry    5.07 a.u.   6.08  6.08 27.46*2*pi/ulx,y,z
   ENINI  =  350.0     initial cutoff
   ENAUG  =  511.4 eV  augmentation charge cutoff
   NELM   =     60;   NELMIN=  4; NELMDL=-10     # of ELM steps 
   EDIFF  = 0.1E-04   stopping-criterion for ELM
   LREAL  =      F    real-space projection
   NLSPLINE    = F    spline interpolate recip. space projectors
   LCOMPAT=      F    compatible to vasp.4.4
   GGA_COMPAT  = T    GGA compatible to vasp.4.4-vasp.4.6
   LMAXPAW     = -100 max onsite density
   LMAXMIX     =    2 max onsite mixed and CHGCAR
   VOSKOWN=      0    Vosko Wilk Nusair interpolation
   ROPT   =    0.00000
 Ionic relaxation
   EDIFFG = -.1E-01   stopping-criterion for IOM
   NSW    =    300    number of steps for IOM
   NBLOCK =      1;   KBLOCK =    300    inner block; outer block 
   IBRION =      2    ionic relax: 0-MD 1-quasi-New 2-CG
   NFREE  =      1    steps in history (QN), initial steepest desc. (CG)
   ISIF   =      2    stress and relaxation
   IWAVPR =     11    prediction:  0-non 1-charg 2-wave 3-comb
   ISYM   =      2    0-nonsym 1-usesym 2-fastsym
   LCORR  =      T    Harris-Foulkes like correction to forces

   POTIM  = 0.5000    time-step for ionic-motion
   TEIN   =    0.0    initial temperature
   TEBEG  =    0.0;   TEEND  =   0.0 temperature during run
   SMASS  =  -3.00    Nose mass-parameter (am)
   estimated Nose-frequenzy (Omega)   =  0.10E-29 period in steps =****** mass=  -0.363E-27a.u.
   SCALEE = 1.0000    scale energy and forces
   NPACO  =    256;   APACO  = 16.0  distance and # of slots for P.C.
   PSTRESS=    0.0 pullay stress

  Mass of Ions in am
   POMASS =  55.85
  Ionic Valenz
   ZVAL   =   8.00
  Atomic Wigner-Seitz radii
   RWIGS  =  -1.00
  virtual crystal weights 
   VCA    =   1.00
   NELECT =      48.0000    total number of electrons
   NUPDOWN=      -1.0000    fix difference up-down

 DOS related values:
   EMIN   =  10.00;   EMAX   =-10.00  energy-range for DOS
   EFERMI =   0.00
   ISMEAR =     2;   SIGMA  =   0.10  broadening in eV -4-tet -1-fermi 0-gaus

 Electronic relaxation 2 (details)
   IALGO  =     68    algorithm
   LDIAG  =      T    sub-space diagonalisation (order eigenvalues)
   LSUBROT=      T    optimize rotation matrix (better conditioning)
   TURBO    =      0    0=normal 1=particle mesh
   IRESTART =      0    0=no restart 2=restart with 2 vectors
   NREBOOT  =      0    no. of reboots
   NMIN     =      0    reboot dimension
   EREF     =   0.00    reference energy to select bands
   IMIX   =      4    mixing-type and parameters
     AMIX     =   0.40;   BMIX     =  1.00
     AMIX_MAG =   1.60;   BMIX_MAG =  1.00
     AMIN     =   0.10
     WC   =   100.;   INIMIX=   1;  MIXPRE=   1;  MAXMIX= -45

 Intra band minimization:
   WEIMIN = 0.0010     energy-eigenvalue tresh-hold
   EBREAK =  0.81E-07  absolut break condition
   DEPER  =   0.30     relativ break condition  

   TIME   =   0.40     timestep for ELM

  volume/ion in A,a.u.               =      41.29       278.63
  Fermi-wavevector in a.u.,A,eV,Ry     =   0.947310  1.790156 12.209818  0.897396
  Thomas-Fermi vector in A             =   2.075391
 
 Write flags
   LWAVE  =      F    write WAVECAR
   LCHARG =      F    write CHGCAR
   LVTOT  =      F    write LOCPOT, total local potential
   LVHAR  =      F    write LOCPOT, Hartree potential only
   LELF   =      F    write electronic localiz. function (ELF)
   LORBIT =      0    0 simple, 1 ext, 2 COOP (PROOUT)


 Dipole corrections
   LMONO  =      F    monopole corrections only (constant potential shift)
   LDIPOL =      F    correct potential (dipole corrections)
   IDIPOL =      0    1-x, 2-y, 3-z, 4-all directions 
   EPSILON=  1.0000000 bulk dielectric constant

 Exchange correlation treatment:
   GGA     =    --    GGA type
   LEXCH   =     8    internal setting for exchange type
   VOSKOWN=      0    Vosko Wilk Nusair interpolation
   LHFCALC =     F    Hartree Fock is set to
   LHFONE  =     F    Hartree Fock one center treatment
   AEXX    =    0.0000 exact exchange contribution

 Linear response parameters
   LEPSILON=     F    determine dielectric tensor
   LRPA    =     F    only Hartree local field effects (RPA)
   LNABLA  =     F    use nabla operator in PAW spheres
   LVEL    =     F    velocity operator in full k-point grid
   LINTERFAST=   F  fast interpolation
   KINTER  =     0    interpolate to denser k-point grid
   CSHIFT  =0.1000    complex shift for real part using Kramers Kronig
   OMEGAMAX=  -1.0    maximum frequency
   DEG_THRESHOLD= 0.2000000E-02 threshold for treating states as degnerate
   RTIME   =    0.100 relaxation time in fs

 Orbital magnetization related:
   ORBITALMAG=     F  switch on orbital magnetization
   LCHIMAG   =     F  perturbation theory with respect to B field
   DQ        =  0.001000  dq finite difference perturbation B field



--------------------------------------------------------------------------------------------------------


 conjugate gradient relaxation of ions
   using selective dynamics as specified on POSCAR
   WARNING: If single coordinates had been selected the selection of coordinates
            is made according to the corresponding   d i r e c t   coordinates!
            Don't support selection of single cartesian coordinates -- sorry ...
  !
 charge density and potential will be updated during run
 spin polarized calculation
 RMM-DIIS sequential band-by-band and
  variant of blocked Davidson during initial phase
 perform sub-space diagonalisation
    before iterative eigenvector-optimisation
 modified Broyden-mixing scheme, WC =      100.0
 initial mixing is a Kerker type mixing with AMIX =  0.4000 and BMIX =      1.0000
 Hartree-type preconditioning will be used
 using additional bands            7
 reciprocal scheme for non local part
 use partial core corrections
 calculate Harris-corrections to forces 
   (improved forces if not selfconsistent)
 use gradient corrections 
 use of overlap-Matrix (Vanderbilt PP)
 Methfessel and Paxton  Order N= 2 SIGMA  =   0.10


--------------------------------------------------------------------------------------------------------


  energy-cutoff  :      350.00
  volume of cell :      247.74
      direct lattice vectors                 reciprocal lattice vectors
     3.986512170  0.000000000  0.000000000     0.250845842 -0.144825914  0.000000000
     1.993256080  3.452420810  0.000000000     0.000000000  0.289651828  0.000000000
     0.000000000  0.000000000 18.000000000     0.000000000  0.000000000  0.055555556

  length of vectors
     3.986512170  3.986512166 18.000000000     0.289651828  0.289651828  0.055555556


 
 k-points in units of 2pi/SCALE and weight: K-Points                                
   0.00000000  0.00000000  0.00000000       0.012
   0.02787176 -0.01609177  0.00000000       0.025
   0.05574352 -0.03218354  0.00000000       0.025
   0.08361528 -0.04827530  0.00000000       0.025
   0.11148704 -0.06436707  0.00000000       0.025
   0.00000000  0.03218354  0.00000000       0.025
   0.02787176  0.01609177  0.00000000       0.025
   0.05574352  0.00000000  0.00000000       0.025
   0.08361528 -0.01609177  0.00000000       0.025
   0.11148704 -0.03218354  0.00000000       0.025
  -0.11148704  0.09655061  0.00000000       0.025
  -0.08361528  0.08045884  0.00000000       0.025
  -0.05574352  0.06436707  0.00000000       0.025
  -0.02787176  0.04827530  0.00000000       0.025
   0.00000000  0.06436707  0.00000000       0.025
   0.02787176  0.04827530  0.00000000       0.025
   0.05574352  0.03218354  0.00000000       0.025
   0.08361528  0.01609177  0.00000000       0.025
   0.11148704  0.00000000  0.00000000       0.025
  -0.11148704  0.12873415  0.00000000       0.025
  -0.08361528  0.11264238  0.00000000       0.025
  -0.05574352  0.09655061  0.00000000       0.025
  -0.02787176  0.08045884  0.00000000       0.025
   0.00000000  0.09655061  0.00000000       0.025
   0.02787176  0.08045884  0.00000000       0.025
   0.05574352  0.06436707  0.00000000       0.025
   0.08361528  0.04827530  0.00000000       0.025
   0.11148704  0.03218354  0.00000000       0.025
  -0.11148704  0.16091768  0.00000000       0.025
  -0.08361528  0.14482591  0.00000000       0.025
  -0.05574352  0.12873415  0.00000000       0.025
  -0.02787176  0.11264238  0.00000000       0.025
   0.00000000  0.12873415  0.00000000       0.025
   0.02787176  0.11264238  0.00000000       0.025
   0.05574352  0.09655061  0.00000000       0.025
   0.08361528  0.08045884  0.00000000       0.025
   0.11148704  0.06436707  0.00000000       0.025
  -0.11148704  0.19310122  0.00000000       0.025
  -0.08361528  0.17700945  0.00000000       0.025
  -0.05574352  0.16091768  0.00000000       0.025
  -0.02787176  0.14482591  0.00000000       0.025
 
 k-points in reciprocal lattice and weights: K-Points                                
   0.00000000  0.00000000  0.00000000       0.012
   0.11111111  0.00000000  0.00000000       0.025
   0.22222222  0.00000000  0.00000000       0.025
   0.33333333  0.00000000  0.00000000       0.025
   0.44444444  0.00000000  0.00000000       0.025
   0.00000000  0.11111111  0.00000000       0.025
   0.11111111  0.11111111  0.00000000       0.025
   0.22222222  0.11111111  0.00000000       0.025
   0.33333333  0.11111111  0.00000000       0.025
   0.44444444  0.11111111  0.00000000       0.025
  -0.44444444  0.11111111  0.00000000       0.025
  -0.33333333  0.11111111  0.00000000       0.025
  -0.22222222  0.11111111  0.00000000       0.025
  -0.11111111  0.11111111  0.00000000       0.025
   0.00000000  0.22222222  0.00000000       0.025
   0.11111111  0.22222222  0.00000000       0.025
   0.22222222  0.22222222  0.00000000       0.025
   0.33333333  0.22222222  0.00000000       0.025
   0.44444444  0.22222222  0.00000000       0.025
  -0.44444444  0.22222222  0.00000000       0.025
  -0.33333333  0.22222222  0.00000000       0.025
  -0.22222222  0.22222222  0.00000000       0.025
  -0.11111111  0.22222222  0.00000000       0.025
   0.00000000  0.33333333  0.00000000       0.025
   0.11111111  0.33333333  0.00000000       0.025
   0.22222222  0.33333333  0.00000000       0.025
   0.33333333  0.33333333  0.00000000       0.025
   0.44444444  0.33333333  0.00000000       0.025
  -0.44444444  0.33333333  0.00000000       0.025
  -0.33333333  0.33333333  0.00000000       0.025
  -0.22222222  0.33333333  0.00000000       0.025
  -0.11111111  0.33333333  0.00000000       0.025
   0.00000000  0.44444444  0.00000000       0.025
   0.11111111  0.44444444  0.00000000       0.025
   0.22222222  0.44444444  0.00000000       0.025
   0.33333333  0.44444444  0.00000000       0.025
   0.44444444  0.44444444  0.00000000       0.025
  -0.44444444  0.44444444  0.00000000       0.025
  -0.33333333  0.44444444  0.00000000       0.025
  -0.22222222  0.44444444  0.00000000       0.025
  -0.11111111  0.44444444  0.00000000       0.025
 
 position of ions in fractional coordinates (direct lattice) 
   0.00000000  0.00000000  0.00000000
   0.33344853  0.33347615  0.04522778
   0.66692468  0.66652385  0.09045000
   0.00039830  0.00000000  0.13567778
   0.33385997  0.33307667  0.18090556
   0.66732298  0.66652385  0.22612778
 
 position of ions in cartesian coordinates  (Angst):
   0.00000000  0.00000000  0.00000000
   1.99400000  1.15130000  0.81410000
   3.98725608  2.30112081  1.62810000
   0.00158783  0.00000000  2.44220000
   1.99484391  1.14992081  3.25630000
   3.98884391  2.30112081  4.07030000
 


--------------------------------------------------------------------------------------------------------


 k-point  1 :   0.0000 0.0000 0.0000  plane waves:    3619
 k-point  2 :   0.1111 0.0000 0.0000  plane waves:    3657
 k-point  3 :   0.2222 0.0000 0.0000  plane waves:    3677
 k-point  4 :   0.3333 0.0000 0.0000  plane waves:    3678
 k-point  5 :   0.4444 0.0000 0.0000  plane waves:    3692
 k-point  6 :   0.0000 0.1111 0.0000  plane waves:    3657
 k-point  7 :   0.1111 0.1111 0.0000  plane waves:    3657
 k-point  8 :   0.2222 0.1111 0.0000  plane waves:    3668
 k-point  9 :   0.3333 0.1111 0.0000  plane waves:    3665
 k-point 10 :   0.4444 0.1111 0.0000  plane waves:    3690
 k-point 11 :  -0.4444 0.1111 0.0000  plane waves:    3700
 k-point 12 :  -0.3333 0.1111 0.0000  plane waves:    3690
 k-point 13 :  -0.2222 0.1111 0.0000  plane waves:    3665
 k-point 14 :  -0.1111 0.1111 0.0000  plane waves:    3668
 k-point 15 :   0.0000 0.2222 0.0000  plane waves:    3677
 k-point 16 :   0.1111 0.2222 0.0000  plane waves:    3668
 k-point 17 :   0.2222 0.2222 0.0000  plane waves:    3677
 k-point 18 :   0.3333 0.2222 0.0000  plane waves:    3665
 k-point 19 :   0.4444 0.2222 0.0000  plane waves:    3694
 k-point 20 :  -0.4444 0.2222 0.0000  plane waves:    3712
 k-point 21 :  -0.3333 0.2222 0.0000  plane waves:    3712
 k-point 22 :  -0.2222 0.2222 0.0000  plane waves:    3694
 k-point 23 :  -0.1111 0.2222 0.0000  plane waves:    3665
 k-point 24 :   0.0000 0.3333 0.0000  plane waves:    3678
 k-point 25 :   0.1111 0.3333 0.0000  plane waves:    3665
 k-point 26 :   0.2222 0.3333 0.0000  plane waves:    3665
 k-point 27 :   0.3333 0.3333 0.0000  plane waves:    3678
 k-point 28 :   0.4444 0.3333 0.0000  plane waves:    3690
 k-point 29 :  -0.4444 0.3333 0.0000  plane waves:    3712
 k-point 30 :  -0.3333 0.3333 0.0000  plane waves:    3744
 k-point 31 :  -0.2222 0.3333 0.0000  plane waves:    3712
 k-point 32 :  -0.1111 0.3333 0.0000  plane waves:    3690
 k-point 33 :   0.0000 0.4444 0.0000  plane waves:    3692
 k-point 34 :   0.1111 0.4444 0.0000  plane waves:    3690
 k-point 35 :   0.2222 0.4444 0.0000  plane waves:    3694
 k-point 36 :   0.3333 0.4444 0.0000  plane waves:    3690
 k-point 37 :   0.4444 0.4444 0.0000  plane waves:    3692
 k-point 38 :  -0.4444 0.4444 0.0000  plane waves:    3700
 k-point 39 :  -0.3333 0.4444 0.0000  plane waves:    3712
 k-point 40 :  -0.2222 0.4444 0.0000  plane waves:    3712
 k-point 41 :  -0.1111 0.4444 0.0000  plane waves:    3700

 maximum and minimum number of plane-waves per node :      3744     3619

 maximum number of plane-waves:      3744
 maximum index in each direction: 
   IXMAX=    6   IYMAX=    6   IZMAX=   27
   IXMIN=   -6   IYMIN=   -6   IZMIN=  -27

 WARNING: aliasing errors must be expected set NGX to  26 to avoid them
 WARNING: aliasing errors must be expected set NGY to  26 to avoid them
 WARNING: aliasing errors must be expected set NGZ to 110 to avoid them
 aliasing errors are usually negligible using standard VASP settings
 and one can safely disregard these warnings

 serial   3D FFT for wavefunctions
 parallel 3D FFT for charge:
    minimum data exchange during FFTs selected (reduces bandwidth)


 total amount of memory used by VASP on root node   234819. kBytes
========================================================================

   base      :      30000. kBytes
   nonl-proj :      22464. kBytes
   fftplans  :       7492. kBytes
   grid      :      18009. kBytes
   one-center:        186. kBytes
   wavefun   :     156668. kBytes
 
 Broyden mixing: mesh for mixing (old mesh)
   NGX = 13   NGY = 13   NGZ = 55
  (NGX  = 36   NGY  = 36   NGZ  =168)
  gives a total of   9295 points

 initial charge density was supplied:
 charge density of overlapping atoms calculated
 number of electron      48.0000000 magnetization       6.0000000
 keeping initial charge density in first step


--------------------------------------------------------------------------------------------------------


 Maximum index for augmentation-charges         3837 (set IRDMAX)


--------------------------------------------------------------------------------------------------------


 First call to EWALD:  gamma=   0.282
 Maximum number of real-space cells 5x 5x 1
 Maximum number of reciprocal cells 2x 2x 7

 FEWALD executed in parallel
    FEWALD:  cpu time    0.00: real time    0.00


----------------------------------------- Iteration    1(   1)  ---------------------------------------


    POTLOK:  cpu time    0.36: real time    0.37
    SETDIJ:  cpu time    0.06: real time    0.06
     EDDAV:  cpu time   43.59: real time   43.68
       DOS:  cpu time    0.02: real time    0.04
    --------------------------------------------
      LOOP:  cpu time   44.03: real time   44.23

 eigenvalue-minimisations  :  5084
 total energy-change (2. order) : 0.3122999E+03  (-0.1538900E+04)
 number of electron      48.0000000 magnetization       6.0000000
 augmentation part       48.0000000 magnetization       6.0000000

 Free energy of the ion-electron system (eV)
  ---------------------------------------------------
  alpha Z        PSCENC =       100.43331480
  Ewald energy   TEWEN  =      8759.37681812
  -1/2 Hartree   DENC   =    -12272.89080727
  -exchange  EXHF       =         0.00000000
  -V(xc)+E(xc)   XCENC  =        20.76515705
  PAW double counting   =      3328.36036734    -3374.58551447
  entropy T*S    EENTRO =         0.00036546
  eigenvalues    EBANDS =       185.07122732
  atomic energy  EATOM  =      3565.76896863
  ---------------------------------------------------
  free energy    TOTEN  =       312.29989696 eV

  energy without entropy =      312.29953150  energy(sigma->0) =      312.29980560


--------------------------------------------------------------------------------------------------------




----------------------------------------- Iteration    1(   2)  ---------------------------------------


     EDDAV:  cpu time   44.24: real time   44.29
       DOS:  cpu time    0.02: real time    0.02
    --------------------------------------------
      LOOP:  cpu time   44.26: real time   44.30

 eigenvalue-minimisations  :  5084
 total energy-change (2. order) :-0.3350069E+03  (-0.3189577E+03)
 number of electron      48.0000000 magnetization       6.0000000
 augmentation part       48.0000000 magnetization       6.0000000

 Free energy of the ion-electron system (eV)
  ---------------------------------------------------
  alpha Z        PSCENC =       100.43331480
  Ewald energy   TEWEN  =      8759.37681812
  -1/2 Hartree   DENC   =    -12272.89080727
  -exchange  EXHF       =         0.00000000
  -V(xc)+E(xc)   XCENC  =        20.76515705
  PAW double counting   =      3328.36036734    -3374.58551447
  entropy T*S    EENTRO =        -0.00045497
  eigenvalues    EBANDS =      -149.93486459
  atomic energy  EATOM  =      3565.76896863
  ---------------------------------------------------
  free energy    TOTEN  =       -22.70701537 eV

  energy without entropy =      -22.70656040  energy(sigma->0) =      -22.70690163


--------------------------------------------------------------------------------------------------------




----------------------------------------- Iteration    1(   3)  ---------------------------------------


     EDDAV:  cpu time   63.62: real time   63.71
       DOS:  cpu time    0.02: real time    0.02
    --------------------------------------------
      LOOP:  cpu time   63.63: real time   63.73

 eigenvalue-minimisations  :  8327
 total energy-change (2. order) :-0.2507704E+02  (-0.2347840E+02)
 number of electron      48.0000000 magnetization       6.0000000
 augmentation part       48.0000000 magnetization       6.0000000

 Free energy of the ion-electron system (eV)
  ---------------------------------------------------
  alpha Z        PSCENC =       100.43331480
  Ewald energy   TEWEN  =      8759.37681812
  -1/2 Hartree   DENC   =    -12272.89080727
  -exchange  EXHF       =         0.00000000
  -V(xc)+E(xc)   XCENC  =        20.76515705
  PAW double counting   =      3328.36036734    -3374.58551447
  entropy T*S    EENTRO =        -0.00161426
  eigenvalues    EBANDS =      -175.01074109
  atomic energy  EATOM  =      3565.76896863
  ---------------------------------------------------
  free energy    TOTEN  =       -47.78405116 eV

  energy without entropy =      -47.78243690  energy(sigma->0) =      -47.78364760


--------------------------------------------------------------------------------------------------------




----------------------------------------- Iteration    1(   4)  ---------------------------------------


     EDDAV:  cpu time   57.42: real time   57.49
       DOS:  cpu time    0.02: real time    0.02
    --------------------------------------------
      LOOP:  cpu time   57.44: real time   57.51

 eigenvalue-minimisations  :  7334
 total energy-change (2. order) :-0.2168021E+01  (-0.2078402E+01)
 number of electron      48.0000000 magnetization       6.0000000
 augmentation part       48.0000000 magnetization       6.0000000

 Free energy of the ion-electron system (eV)
  ---------------------------------------------------
  alpha Z        PSCENC =       100.43331480
  Ewald energy   TEWEN  =      8759.37681812
  -1/2 Hartree   DENC   =    -12272.89080727
  -exchange  EXHF       =         0.00000000
  -V(xc)+E(xc)   XCENC  =        20.76515705
  PAW double counting   =      3328.36036734    -3374.58551447
  entropy T*S    EENTRO =         0.00281662
  eigenvalues    EBANDS =      -177.18319304
  atomic energy  EATOM  =      3565.76896863
  ---------------------------------------------------
  free energy    TOTEN  =       -49.95207223 eV

  energy without entropy =      -49.95488886  energy(sigma->0) =      -49.95277639


--------------------------------------------------------------------------------------------------------




----------------------------------------- Iteration    1(   5)  ---------------------------------------


     EDDAV:  cpu time   60.37: real time   60.44
       DOS:  cpu time    0.02: real time    0.02
    --------------------------------------------
      LOOP:  cpu time   60.39: real time   60.46

 eigenvalue-minimisations  :  7834
 total energy-change (2. order) :-0.1826629E+00  (-0.1771717E+00)
 number of electron      48.0000000 magnetization       6.0000000
 augmentation part       48.0000000 magnetization       6.0000000

 Free energy of the ion-electron system (eV)
  ---------------------------------------------------
  alpha Z        PSCENC =       100.43331480
  Ewald energy   TEWEN  =      8759.37681812
  -1/2 Hartree   DENC   =    -12272.89080727
  -exchange  EXHF       =         0.00000000
  -V(xc)+E(xc)   XCENC  =        20.76515705
  PAW double counting   =      3328.36036734    -3374.58551447
  entropy T*S    EENTRO =         0.00447331
  eigenvalues    EBANDS =      -177.36751265
  atomic energy  EATOM  =      3565.76896863
  ---------------------------------------------------
  free energy    TOTEN  =       -50.13473515 eV

  energy without entropy =      -50.13920847  energy(sigma->0) =      -50.13585348


--------------------------------------------------------------------------------------------------------




----------------------------------------- Iteration    1(   6)  ---------------------------------------


     EDDAV:  cpu time   59.78: real time   59.85
       DOS:  cpu time    0.02: real time    0.02
    --------------------------------------------
      LOOP:  cpu time   59.80: real time   59.87

 eigenvalue-minimisations  :  7668
 total energy-change (2. order) :-0.1924407E-01  (-0.1895511E-01)
 number of electron      48.0000000 magnetization       6.0000000
 augmentation part       48.0000000 magnetization       6.0000000

 Free energy of the ion-electron system (eV)
  ---------------------------------------------------
  alpha Z        PSCENC =       100.43331480
  Ewald energy   TEWEN  =      8759.37681812
  -1/2 Hartree   DENC   =    -12272.89080727
  -exchange  EXHF       =         0.00000000
  -V(xc)+E(xc)   XCENC  =        20.76515705
  PAW double counting   =      3328.36036734    -3374.58551447
  entropy T*S    EENTRO =         0.00438699
  eigenvalues    EBANDS =      -177.38667040
  atomic energy  EATOM  =      3565.76896863
  ---------------------------------------------------
  free energy    TOTEN  =       -50.15397922 eV

  energy without entropy =      -50.15836622  energy(sigma->0) =      -50.15507597


--------------------------------------------------------------------------------------------------------




----------------------------------------- Iteration    1(   7)  ---------------------------------------


     EDDAV:  cpu time   61.80: real time   61.87
       DOS:  cpu time    0.02: real time    0.02
    --------------------------------------------
      LOOP:  cpu time   61.82: real time   61.88

 eigenvalue-minimisations  :  7974
 total energy-change (2. order) :-0.1505597E-02  (-0.1499655E-02)
 number of electron      48.0000000 magnetization       6.0000000
 augmentation part       48.0000000 magnetization       6.0000000

 Free energy of the ion-electron system (eV)
  ---------------------------------------------------
  alpha Z        PSCENC =       100.43331480
  Ewald energy   TEWEN  =      8759.37681812
  -1/2 Hartree   DENC   =    -12272.89080727
  -exchange  EXHF       =         0.00000000
  -V(xc)+E(xc)   XCENC  =        20.76515705
  PAW double counting   =      3328.36036734    -3374.58551447
  entropy T*S    EENTRO =         0.00434961
  eigenvalues    EBANDS =      -177.38813862
  atomic energy  EATOM  =      3565.76896863
  ---------------------------------------------------
  free energy    TOTEN  =       -50.15548482 eV

  energy without entropy =      -50.15983444  energy(sigma->0) =      -50.15657222


--------------------------------------------------------------------------------------------------------




----------------------------------------- Iteration    1(   8)  ---------------------------------------


     EDDAV:  cpu time   50.31: real time   50.36
       DOS:  cpu time    0.02: real time    0.02
    --------------------------------------------
      LOOP:  cpu time   50.32: real time   50.38

 eigenvalue-minimisations  :  6086
 total energy-change (2. order) :-0.1881695E-03  (-0.1875410E-03)
 number of electron      48.0000000 magnetization       6.0000000
 augmentation part       48.0000000 magnetization       6.0000000

 Free energy of the ion-electron system (eV)
  ---------------------------------------------------
  alpha Z        PSCENC =       100.43331480
  Ewald energy   TEWEN  =      8759.37681812
  -1/2 Hartree   DENC   =    -12272.89080727
  -exchange  EXHF       =         0.00000000
  -V(xc)+E(xc)   XCENC  =        20.76515705
  PAW double counting   =      3328.36036734    -3374.58551447
  entropy T*S    EENTRO =         0.00433440
  eigenvalues    EBANDS =      -177.38831158
  atomic energy  EATOM  =      3565.76896863
  ---------------------------------------------------
  free energy    TOTEN  =       -50.15567299 eV

  energy without entropy =      -50.16000739  energy(sigma->0) =      -50.15675659


--------------------------------------------------------------------------------------------------------




----------------------------------------- Iteration    1(   9)  ---------------------------------------


     EDDAV:  cpu time   43.71: real time   43.76
       DOS:  cpu time    0.02: real time    0.02
    --------------------------------------------
      LOOP:  cpu time   43.73: real time   43.78

 eigenvalue-minimisations  :  4959
 total energy-change (2. order) :-0.2722469E-04  (-0.2707562E-04)
 number of electron      48.0000000 magnetization       6.0000000
 augmentation part       48.0000000 magnetization       6.0000000

 Free energy of the ion-electron system (eV)
  ---------------------------------------------------
  alpha Z        PSCENC =       100.43331480
  Ewald energy   TEWEN  =      8759.37681812
  -1/2 Hartree   DENC   =    -12272.89080727
  -exchange  EXHF       =         0.00000000
  -V(xc)+E(xc)   XCENC  =        20.76515705
  PAW double counting   =      3328.36036734    -3374.58551447
  entropy T*S    EENTRO =         0.00432499
  eigenvalues    EBANDS =      -177.38832939
  atomic energy  EATOM  =      3565.76896863
  ---------------------------------------------------
  free energy    TOTEN  =       -50.15570022 eV

  energy without entropy =      -50.16002520  energy(sigma->0) =      -50.15678146


--------------------------------------------------------------------------------------------------------




----------------------------------------- Iteration    1(  10)  ---------------------------------------


     EDDAV:  cpu time   39.15: real time   39.19
       DOS:  cpu time    0.02: real time    0.02
    CHARGE:  cpu time    5.54: real time    5.54
    MIXING:  cpu time    0.01: real time    0.08
    --------------------------------------------
      LOOP:  cpu time   44.71: real time   45.17

 eigenvalue-minimisations  :  4221
 total energy-change (2. order) :-0.5148177E-05  (-0.5116541E-05)
 number of electron      47.9999955 magnetization       6.0298706
 augmentation part       21.8737632 magnetization       4.2178872

 Broyden mixing:
  rms(total) = 0.26880E+01    rms(broyden)= 0.26874E+01
  rms(prec ) = 0.30117E+01
  weight for this iteration     100.00

 Free energy of the ion-electron system (eV)
  ---------------------------------------------------
  alpha Z        PSCENC =       100.43331480
  Ewald energy   TEWEN  =      8759.37681812
  -1/2 Hartree   DENC   =    -12272.89080727
  -exchange  EXHF       =         0.00000000
  -V(xc)+E(xc)   XCENC  =        20.76515705
  PAW double counting   =      3328.36036734    -3374.58551447
  entropy T*S    EENTRO =         0.00432009
  eigenvalues    EBANDS =      -177.38832964
  atomic energy  EATOM  =      3565.76896863
  ---------------------------------------------------
  free energy    TOTEN  =       -50.15570536 eV

  energy without entropy =      -50.16002546  energy(sigma->0) =      -50.15678539


--------------------------------------------------------------------------------------------------------




----------------------------------------- Iteration    1(  11)  ---------------------------------------


    POTLOK:  cpu time    0.36: real time    0.36
    SETDIJ:  cpu time    0.06: real time    0.06
    EDDIAG:  cpu time   11.29: real time   11.31
  RMM-DIIS:  cpu time   50.20: real time   50.25
    ORTHCH:  cpu time    0.48: real time    0.48
       DOS:  cpu time    0.02: real time    0.02
    CHARGE:  cpu time    5.52: real time    5.52
    MIXING:  cpu time    0.01: real time    0.03
    --------------------------------------------
      LOOP:  cpu time   67.92: real time   68.03

 eigenvalue-minimisations  :  7458
 total energy-change (2. order) :-0.4601842E+02  (-0.3275118E+02)
 number of electron      48.0000029 magnetization       5.9167262
 augmentation part       26.1213408 magnetization       5.7502545

 Broyden mixing:
  rms(total) = 0.92174E+01    rms(broyden)= 0.92171E+01
  rms(prec ) = 0.98708E+01
  weight for this iteration     100.00

 eigenvalues of (default mixing * dielectric matrix)
  average eigenvalue GAMMA=   0.1360
  0.1360

 Free energy of the ion-electron system (eV)
  ---------------------------------------------------
  alpha Z        PSCENC =       100.43331480
  Ewald energy   TEWEN  =      8759.37681812
  -1/2 Hartree   DENC   =    -12225.57297335
  -exchange  EXHF       =         0.00000000
  -V(xc)+E(xc)   XCENC  =        16.51954844
  PAW double counting   =      3528.98556424    -3562.21198287
  entropy T*S    EENTRO =         0.00369263
  eigenvalues    EBANDS =      -279.47708037
  atomic energy  EATOM  =      3565.76896863
  ---------------------------------------------------
  free energy    TOTEN  =       -96.17412974 eV

  energy without entropy =      -96.17782236  energy(sigma->0) =      -96.17505289


--------------------------------------------------------------------------------------------------------




----------------------------------------- Iteration    1(  12)  ---------------------------------------


    POTLOK:  cpu time    0.36: real time    0.37
    SETDIJ:  cpu time    0.06: real time    0.06
    EDDIAG:  cpu time   11.22: real time   11.24
  RMM-DIIS:  cpu time   35.76: real time   35.81
    ORTHCH:  cpu time    0.47: real time    0.47
       DOS:  cpu time    0.02: real time    0.02
    CHARGE:  cpu time    5.52: real time    5.52
    MIXING:  cpu time    0.01: real time    0.03
    --------------------------------------------
      LOOP:  cpu time   53.43: real time   53.51

 eigenvalue-minimisations  :  5110
 total energy-change (2. order) : 0.3862672E+02  (-0.5250826E+01)
 number of electron      48.0000056 magnetization       5.9263679
 augmentation part       25.9584849 magnetization       4.9033540

 Broyden mixing:
  rms(total) = 0.47733E+01    rms(broyden)= 0.47731E+01
  rms(prec ) = 0.54077E+01
  weight for this iteration     100.00

 eigenvalues of (default mixing * dielectric matrix)
  average eigenvalue GAMMA=   0.2385
  0.2385  0.2385

 Free energy of the ion-electron system (eV)
  ---------------------------------------------------
  alpha Z        PSCENC =       100.43331480
  Ewald energy   TEWEN  =      8759.37681812
  -1/2 Hartree   DENC   =    -12212.96459420
  -exchange  EXHF       =         0.00000000
  -V(xc)+E(xc)   XCENC  =        16.46555195
  PAW double counting   =      3596.04560249    -3631.97037792
  entropy T*S    EENTRO =         0.00237227
  eigenvalues    EBANDS =      -250.70506572
  atomic energy  EATOM  =      3565.76896863
  ---------------------------------------------------
  free energy    TOTEN  =       -57.54740958 eV

  energy without entropy =      -57.54978185  energy(sigma->0) =      -57.54800265


--------------------------------------------------------------------------------------------------------




----------------------------------------- Iteration    1(  13)  ---------------------------------------


    POTLOK:  cpu time    0.38: real time    0.38
    SETDIJ:  cpu time    0.06: real time    0.06
    EDDIAG:  cpu time   11.20: real time   11.21
  RMM-DIIS:  cpu time   37.10: real time   37.14
    ORTHCH:  cpu time    0.47: real time    0.48
       DOS:  cpu time    0.02: real time    0.02
    CHARGE:  cpu time    5.54: real time    5.55
    MIXING:  cpu time    0.01: real time    0.01
    --------------------------------------------
      LOOP:  cpu time   54.78: real time   54.85

 eigenvalue-minimisations  :  5298
 total energy-change (2. order) :-0.1124451E+01  (-0.1116483E+02)
 number of electron      47.9999918 magnetization       5.9559580
 augmentation part       26.3166368 magnetization       4.3952292

 Broyden mixing:
  rms(total) = 0.48129E+01    rms(broyden)= 0.48119E+01
  rms(prec ) = 0.53217E+01
  weight for this iteration     100.00

 eigenvalues of (default mixing * dielectric matrix)
  average eigenvalue GAMMA=   0.2417
  0.2807  0.2807  0.1636

 Free energy of the ion-electron system (eV)
  ---------------------------------------------------
  alpha Z        PSCENC =       100.43331480
  Ewald energy   TEWEN  =      8759.37681812
  -1/2 Hartree   DENC   =    -12213.10276166
  -exchange  EXHF       =         0.00000000
  -V(xc)+E(xc)   XCENC  =        16.92460434
  PAW double counting   =      3615.48565438    -3653.49235181
  entropy T*S    EENTRO =         0.00393650
  eigenvalues    EBANDS =      -250.07004433
  atomic energy  EATOM  =      3565.76896863
  ---------------------------------------------------
  free energy    TOTEN  =       -58.67186104 eV

  energy without entropy =      -58.67579754  energy(sigma->0) =      -58.67284517


--------------------------------------------------------------------------------------------------------




----------------------------------------- Iteration    1(  14)  ---------------------------------------


    POTLOK:  cpu time    0.38: real time    0.37
    SETDIJ:  cpu time    0.06: real time    0.06
    EDDIAG:  cpu time   11.30: real time   11.32
  RMM-DIIS:  cpu time   38.39: real time   38.43
    ORTHCH:  cpu time    0.48: real time    0.48
       DOS:  cpu time    0.02: real time    0.02
    CHARGE:  cpu time    5.52: real time    5.53
    MIXING:  cpu time    0.01: real time    0.01
    --------------------------------------------
      LOOP:  cpu time   56.15: real time   56.26

 eigenvalue-minimisations  :  5528
 total energy-change (2. order) : 0.7553195E+01  (-0.3873134E+01)
 number of electron      47.9999898 magnetization       5.7526338
 augmentation part       25.7119149 magnetization       5.1589393

 Broyden mixing:
  rms(total) = 0.45004E+01    rms(broyden)= 0.45002E+01
  rms(prec ) = 0.52789E+01
  weight for this iteration     100.00

 eigenvalues of (default mixing * dielectric matrix)
  average eigenvalue GAMMA=   0.3105
  0.6981  0.1882  0.1882  0.1673

 Free energy of the ion-electron system (eV)
  ---------------------------------------------------
  alpha Z        PSCENC =       100.43331480
  Ewald energy   TEWEN  =      8759.37681812
  -1/2 Hartree   DENC   =    -12221.53093502
  -exchange  EXHF       =         0.00000000
  -V(xc)+E(xc)   XCENC  =        17.58595075
  PAW double counting   =      3684.23646394    -3726.22166547
  entropy T*S    EENTRO =         0.00434533
  eigenvalues    EBANDS =      -230.77192745
  atomic energy  EATOM  =      3565.76896863
  ---------------------------------------------------
  free energy    TOTEN  =       -51.11866638 eV

  energy without entropy =      -51.12301171  energy(sigma->0) =      -51.11975271


--------------------------------------------------------------------------------------------------------




----------------------------------------- Iteration    1(  15)  ---------------------------------------


    POTLOK:  cpu time    0.36: real time    0.36
    SETDIJ:  cpu time    0.06: real time    0.06
    EDDIAG:  cpu time   11.34: real time   11.35
  RMM-DIIS:  cpu time   35.76: real time   35.81
    ORTHCH:  cpu time    0.48: real time    0.48
       DOS:  cpu time    0.02: real time    0.02
    CHARGE:  cpu time    5.64: real time    5.65
    MIXING:  cpu time    0.01: real time    0.01
    --------------------------------------------
      LOOP:  cpu time   53.68: real time   53.74

 eigenvalue-minimisations  :  5108
 total energy-change (2. order) : 0.7405674E+01  (-0.7684086E+00)
 number of electron      47.9999952 magnetization       5.8146243
 augmentation part       24.9928369 magnetization       3.8258288

 Broyden mixing:
  rms(total) = 0.22920E+01    rms(broyden)= 0.22915E+01
  rms(prec ) = 0.25960E+01
  weight for this iteration     100.00

 eigenvalues of (default mixing * dielectric matrix)
  average eigenvalue GAMMA=   0.3644
  0.9567  0.3309  0.2017  0.2017  0.1313

 Free energy of the ion-electron system (eV)
  ---------------------------------------------------
  alpha Z        PSCENC =       100.43331480
  Ewald energy   TEWEN  =      8759.37681812
  -1/2 Hartree   DENC   =    -12249.26993697
  -exchange  EXHF       =         0.00000000
  -V(xc)+E(xc)   XCENC  =        17.49578422
  PAW double counting   =      3794.38942730    -3841.63182772
  entropy T*S    EENTRO =         0.00386677
  eigenvalues    EBANDS =      -190.27940762
  atomic energy  EATOM  =      3565.76896863
  ---------------------------------------------------
  free energy    TOTEN  =       -43.71299247 eV

  energy without entropy =      -43.71685924  energy(sigma->0) =      -43.71395916


--------------------------------------------------------------------------------------------------------




----------------------------------------- Iteration    1(  16)  ---------------------------------------


    POTLOK:  cpu time    0.36: real time    0.36
    SETDIJ:  cpu time    0.06: real time    0.06
    EDDIAG:  cpu time   11.12: real time   11.13
  RMM-DIIS:  cpu time   39.64: real time   39.69
    ORTHCH:  cpu time    0.49: real time    0.49
       DOS:  cpu time    0.02: real time    0.02
    CHARGE:  cpu time    5.64: real time    5.65
    MIXING:  cpu time    0.01: real time    0.01
    --------------------------------------------
      LOOP:  cpu time   57.34: real time   57.41

 eigenvalue-minimisations  :  5769
 total energy-change (2. order) : 0.1083787E+01  (-0.7464818E+00)
 number of electron      47.9999989 magnetization       5.8344467
 augmentation part       24.8363208 magnetization       3.8171766

 Broyden mixing:
  rms(total) = 0.12948E+01    rms(broyden)= 0.12942E+01
  rms(prec ) = 0.14341E+01
  weight for this iteration     100.00

 eigenvalues of (default mixing * dielectric matrix)
  average eigenvalue GAMMA=   0.3061
  0.9511  0.3371  0.2015  0.2015  0.1316  0.0137

 Free energy of the ion-electron system (eV)
  ---------------------------------------------------
  alpha Z        PSCENC =       100.43331480
  Ewald energy   TEWEN  =      8759.37681812
  -1/2 Hartree   DENC   =    -12253.71049227
  -exchange  EXHF       =         0.00000000
  -V(xc)+E(xc)   XCENC  =        17.73737009
  PAW double counting   =      3835.95197632    -3884.21194759
  entropy T*S    EENTRO =         0.00130471
  eigenvalues    EBANDS =      -183.97651778
  atomic energy  EATOM  =      3565.76896863
  ---------------------------------------------------
  free energy    TOTEN  =       -42.62920498 eV

  energy without entropy =      -42.63050968  energy(sigma->0) =      -42.62953115


--------------------------------------------------------------------------------------------------------




----------------------------------------- Iteration    1(  17)  ---------------------------------------


    POTLOK:  cpu time    0.37: real time    0.37
    SETDIJ:  cpu time    0.06: real time    0.06
    EDDIAG:  cpu time   11.14: real time   11.16
  RMM-DIIS:  cpu time   47.29: real time   47.34
    ORTHCH:  cpu time    0.47: real time    0.47
       DOS:  cpu time    0.02: real time    0.02
    CHARGE:  cpu time    5.59: real time    5.59
    MIXING:  cpu time    0.01: real time    0.01
    --------------------------------------------
      LOOP:  cpu time   64.95: real time   65.03

 eigenvalue-minimisations  :  7088
 total energy-change (2. order) :-0.6272305E-01  (-0.1736274E+00)
 number of electron      47.9999990 magnetization       5.8287984
 augmentation part       24.8134556 magnetization       3.8329596

 Broyden mixing:
  rms(total) = 0.12388E+01    rms(broyden)= 0.12387E+01
  rms(prec ) = 0.13111E+01
  weight for this iteration     100.00

 eigenvalues of (default mixing * dielectric matrix)
  average eigenvalue GAMMA=   0.2819
  0.9337  0.3496  0.2008  0.2008  0.1317  0.1024  0.0543

 Free energy of the ion-electron system (eV)
  ---------------------------------------------------
  alpha Z        PSCENC =       100.43331480
  Ewald energy   TEWEN  =      8759.37681812
  -1/2 Hartree   DENC   =    -12254.19979595
  -exchange  EXHF       =         0.00000000
  -V(xc)+E(xc)   XCENC  =        17.78496540
  PAW double counting   =      3841.94107437    -3890.32082187
  entropy T*S    EENTRO =         0.00094539
  eigenvalues    EBANDS =      -183.47739691
  atomic energy  EATOM  =      3565.76896863
  ---------------------------------------------------
  free energy    TOTEN  =       -42.69192803 eV

  energy without entropy =      -42.69287342  energy(sigma->0) =      -42.69216437


--------------------------------------------------------------------------------------------------------




----------------------------------------- Iteration    1(  18)  ---------------------------------------


    POTLOK:  cpu time    0.38: real time    0.38
    SETDIJ:  cpu time    0.06: real time    0.06
    EDDIAG:  cpu time   11.28: real time   11.29
  RMM-DIIS:  cpu time   48.80: real time   48.85
    ORTHCH:  cpu time    0.48: real time    0.48
       DOS:  cpu time    0.02: real time    0.02
    CHARGE:  cpu time    5.52: real time    5.52
    MIXING:  cpu time    0.01: real time    0.01
    --------------------------------------------
      LOOP:  cpu time   66.53: real time   66.61

 eigenvalue-minimisations  :  7272
 total energy-change (2. order) : 0.9128804E-02  (-0.2156549E-01)
 number of electron      47.9999991 magnetization       5.8741789
 augmentation part       24.8101992 magnetization       3.8665736

 Broyden mixing:
  rms(total) = 0.12799E+01    rms(broyden)= 0.12799E+01
  rms(prec ) = 0.13565E+01
  weight for this iteration     100.00

 eigenvalues of (default mixing * dielectric matrix)
  average eigenvalue GAMMA=   0.2715
  0.9318  0.3559  0.2123  0.1998  0.1998  0.1329  0.0697  0.0697

 Free energy of the ion-electron system (eV)
  ---------------------------------------------------
  alpha Z        PSCENC =       100.43331480
  Ewald energy   TEWEN  =      8759.37681812
  -1/2 Hartree   DENC   =    -12254.11073036
  -exchange  EXHF       =         0.00000000
  -V(xc)+E(xc)   XCENC  =        17.78431621
  PAW double counting   =      3840.34518539    -3888.66465608
  entropy T*S    EENTRO =         0.00031204
  eigenvalues    EBANDS =      -183.61632797
  atomic energy  EATOM  =      3565.76896863
  ---------------------------------------------------
  free energy    TOTEN  =       -42.68279922 eV

  energy without entropy =      -42.68311126  energy(sigma->0) =      -42.68287723


--------------------------------------------------------------------------------------------------------




----------------------------------------- Iteration    1(  19)  ---------------------------------------


    POTLOK:  cpu time    0.37: real time    0.37
    SETDIJ:  cpu time    0.06: real time    0.06
    EDDIAG:  cpu time   11.13: real time   11.14
  RMM-DIIS:  cpu time   38.82: real time   38.87
    ORTHCH:  cpu time    0.48: real time    0.48
       DOS:  cpu time    0.02: real time    0.02
    CHARGE:  cpu time    5.52: real time    5.52
    MIXING:  cpu time    0.01: real time    0.01
    --------------------------------------------
      LOOP:  cpu time   56.40: real time   56.47

 eigenvalue-minimisations  :  5629
 total energy-change (2. order) :-0.7631860E-01  (-0.5018702E-02)
 number of electron      47.9999991 magnetization       5.9486199
 augmentation part       24.8221098 magnetization       3.9702296

 Broyden mixing:
  rms(total) = 0.12762E+01    rms(broyden)= 0.12762E+01
  rms(prec ) = 0.13586E+01
  weight for this iteration     100.00

 eigenvalues of (default mixing * dielectric matrix)
  average eigenvalue GAMMA=   0.3114
  0.9273  0.3684  0.3684  0.3642  0.1973  0.1973  0.1715  0.1226  0.0856

 Free energy of the ion-electron system (eV)
  ---------------------------------------------------
  alpha Z        PSCENC =       100.43331480
  Ewald energy   TEWEN  =      8759.37681812
  -1/2 Hartree   DENC   =    -12254.32028685
  -exchange  EXHF       =         0.00000000
  -V(xc)+E(xc)   XCENC  =        17.84989514
  PAW double counting   =      3846.19769768    -3894.61684079
  entropy T*S    EENTRO =        -0.00036062
  eigenvalues    EBANDS =      -183.44832393
  atomic energy  EATOM  =      3565.76896863
  ---------------------------------------------------
  free energy    TOTEN  =       -42.75911782 eV

  energy without entropy =      -42.75875720  energy(sigma->0) =      -42.75902766


--------------------------------------------------------------------------------------------------------




----------------------------------------- Iteration    1(  20)  ---------------------------------------


    POTLOK:  cpu time    0.37: real time    0.37
    SETDIJ:  cpu time    0.06: real time    0.06
    EDDIAG:  cpu time   11.13: real time   11.14
  RMM-DIIS:  cpu time   36.01: real time   36.05
    ORTHCH:  cpu time    0.48: real time    0.48
       DOS:  cpu time    0.02: real time    0.02
    CHARGE:  cpu time    5.52: real time    5.52
    MIXING:  cpu time    0.02: real time    0.02
    --------------------------------------------
      LOOP:  cpu time   53.60: real time   53.66

 eigenvalue-minimisations  :  5131
 total energy-change (2. order) :-0.1147100E+00  (-0.2804972E-01)
 number of electron      47.9999992 magnetization       6.4076202
 augmentation part       24.8443292 magnetization       4.4611031

 Broyden mixing:
  rms(total) = 0.13023E+01    rms(broyden)= 0.13022E+01
  rms(prec ) = 0.14065E+01
  weight for this iteration     100.00

 eigenvalues of (default mixing * dielectric matrix)
  average eigenvalue GAMMA=   0.4075
  0.8772  0.8772  0.9026  0.4511  0.2626  0.1958  0.1958  0.1261  0.1058  0.0804

 Free energy of the ion-electron system (eV)
  ---------------------------------------------------
  alpha Z        PSCENC =       100.43331480
  Ewald energy   TEWEN  =      8759.37681812
  -1/2 Hartree   DENC   =    -12254.49564541
  -exchange  EXHF       =         0.00000000
  -V(xc)+E(xc)   XCENC  =        17.93482890
  PAW double counting   =      3852.95522664    -3901.46113668
  entropy T*S    EENTRO =        -0.00128672
  eigenvalues    EBANDS =      -183.38491609
  atomic energy  EATOM  =      3565.76896863
  ---------------------------------------------------
  free energy    TOTEN  =       -42.87382783 eV

  energy without entropy =      -42.87254111  energy(sigma->0) =      -42.87350615


--------------------------------------------------------------------------------------------------------




----------------------------------------- Iteration    1(  21)  ---------------------------------------


    POTLOK:  cpu time    0.38: real time    0.38
    SETDIJ:  cpu time    0.06: real time    0.06
    EDDIAG:  cpu time   11.30: real time   11.31
  RMM-DIIS:  cpu time   37.25: real time   37.30
    ORTHCH:  cpu time    0.48: real time    0.48
       DOS:  cpu time    0.02: real time    0.02
    CHARGE:  cpu time    5.52: real time    5.52
    MIXING:  cpu time    0.02: real time    0.02
    --------------------------------------------
      LOOP:  cpu time   55.02: real time   55.09

 eigenvalue-minimisations  :  5339
 total energy-change (2. order) :-0.7401655E-01  (-0.8976342E-01)
 number of electron      47.9999989 magnetization       6.5527397
 augmentation part       24.9605791 magnetization       4.5915820

 Broyden mixing:
  rms(total) = 0.11485E+01    rms(broyden)= 0.11485E+01
  rms(prec ) = 0.12384E+01
  weight for this iteration     100.00

 eigenvalues of (default mixing * dielectric matrix)
  average eigenvalue GAMMA=   0.4069
  1.0099  1.0099  0.8780  0.4456  0.1953  0.1953  0.2117  0.2117  0.1299  0.1069
  0.0817

 Free energy of the ion-electron system (eV)
  ---------------------------------------------------
  alpha Z        PSCENC =       100.43331480
  Ewald energy   TEWEN  =      8759.37681812
  -1/2 Hartree   DENC   =    -12256.65068077
  -exchange  EXHF       =         0.00000000
  -V(xc)+E(xc)   XCENC  =        18.71924128
  PAW double counting   =      3900.83452764    -3950.20934636
  entropy T*S    EENTRO =        -0.00043252
  eigenvalues    EBANDS =      -181.22025521
  atomic energy  EATOM  =      3565.76896863
  ---------------------------------------------------
  free energy    TOTEN  =       -42.94784438 eV

  energy without entropy =      -42.94741186  energy(sigma->0) =      -42.94773625


--------------------------------------------------------------------------------------------------------




----------------------------------------- Iteration    1(  22)  ---------------------------------------


    POTLOK:  cpu time    0.37: real time    0.37
    SETDIJ:  cpu time    0.06: real time    0.06
    EDDIAG:  cpu time   11.28: real time   11.30
  RMM-DIIS:  cpu time   37.30: real time   37.35
    ORTHCH:  cpu time    0.48: real time    0.48
       DOS:  cpu time    0.02: real time    0.02
    CHARGE:  cpu time    5.58: real time    5.59
    MIXING:  cpu time    0.02: real time    0.02
    --------------------------------------------
      LOOP:  cpu time   55.11: real time   55.18

 eigenvalue-minimisations  :  5350
 total energy-change (2. order) : 0.1550498E+00  (-0.5367631E-01)
 number of electron      47.9999988 magnetization       6.3981597
 augmentation part       25.0026804 magnetization       4.4319025

 Broyden mixing:
  rms(total) = 0.10948E+01    rms(broyden)= 0.10948E+01
  rms(prec ) = 0.11726E+01
  weight for this iteration     100.00

 eigenvalues of (default mixing * dielectric matrix)
  average eigenvalue GAMMA=   0.4005
  1.1088  1.1088  0.8604  0.4293  0.1953  0.1953  0.2342  0.2342  0.1387  0.1171
  0.1038  0.0806

 Free energy of the ion-electron system (eV)
  ---------------------------------------------------
  alpha Z        PSCENC =       100.43331480
  Ewald energy   TEWEN  =      8759.37681812
  -1/2 Hartree   DENC   =    -12257.61288863
  -exchange  EXHF       =         0.00000000
  -V(xc)+E(xc)   XCENC  =        18.98797759
  PAW double counting   =      3911.27491294    -3960.83886381
  entropy T*S    EENTRO =        -0.00071533
  eigenvalues    EBANDS =      -180.18231885
  atomic energy  EATOM  =      3565.76896863
  ---------------------------------------------------
  free energy    TOTEN  =       -42.79279455 eV

  energy without entropy =      -42.79207922  energy(sigma->0) =      -42.79261572


--------------------------------------------------------------------------------------------------------




----------------------------------------- Iteration    1(  23)  ---------------------------------------


    POTLOK:  cpu time    0.38: real time    0.38
    SETDIJ:  cpu time    0.06: real time    0.06
    EDDIAG:  cpu time   11.20: real time   11.21
  RMM-DIIS:  cpu time   40.69: real time   40.74
    ORTHCH:  cpu time    0.48: real time    0.48
       DOS:  cpu time    0.02: real time    0.02
    CHARGE:  cpu time    5.62: real time    5.62
    MIXING:  cpu time    0.02: real time    0.02
    --------------------------------------------
      LOOP:  cpu time   58.46: real time   58.53

 eigenvalue-minimisations  :  5908
 total energy-change (2. order) :-0.7338964E-01  (-0.1659597E-01)
 number of electron      47.9999988 magnetization       6.9015957
 augmentation part       25.0132330 magnetization       4.9913433

 Broyden mixing:
  rms(total) = 0.11304E+01    rms(broyden)= 0.11304E+01
  rms(prec ) = 0.12073E+01
  weight for this iteration     100.00

 eigenvalues of (default mixing * dielectric matrix)
  average eigenvalue GAMMA=   0.5514
  1.6986  1.6986  0.9905  0.5516  0.5516  0.5115  0.2985  0.1960  0.1960  0.1615
  0.1273  0.1054  0.0812

 Free energy of the ion-electron system (eV)
  ---------------------------------------------------
  alpha Z        PSCENC =       100.43331480
  Ewald energy   TEWEN  =      8759.37681812
  -1/2 Hartree   DENC   =    -12255.88413242
  -exchange  EXHF       =         0.00000000
  -V(xc)+E(xc)   XCENC  =        18.73984290
  PAW double counting   =      3905.60489615    -3955.02493418
  entropy T*S    EENTRO =         0.00031873
  eigenvalues    EBANDS =      -181.88127691
  atomic energy  EATOM  =      3565.76896863
  ---------------------------------------------------
  free energy    TOTEN  =       -42.86618419 eV

  energy without entropy =      -42.86650292  energy(sigma->0) =      -42.86626387


--------------------------------------------------------------------------------------------------------




----------------------------------------- Iteration    1(  24)  ---------------------------------------


    POTLOK:  cpu time    0.38: real time    0.38
    SETDIJ:  cpu time    0.06: real time    0.06
    EDDIAG:  cpu time   11.18: real time   11.19
  RMM-DIIS:  cpu time   36.61: real time   36.66
    ORTHCH:  cpu time    0.47: real time    0.47
       DOS:  cpu time    0.02: real time    0.02
    CHARGE:  cpu time    5.55: real time    5.56
    MIXING:  cpu time    0.02: real time    0.02
    --------------------------------------------
      LOOP:  cpu time   54.28: real time   54.35

 eigenvalue-minimisations  :  5234
 total energy-change (2. order) : 0.8321501E-01  (-0.4579316E-01)
 number of electron      47.9999988 magnetization       7.1519575
 augmentation part       25.0533582 magnetization       5.1087590

 Broyden mixing:
  rms(total) = 0.11304E+01    rms(broyden)= 0.11304E+01
  rms(prec ) = 0.12124E+01
  weight for this iteration     100.00

 eigenvalues of (default mixing * dielectric matrix)
  average eigenvalue GAMMA=   0.6168
  2.1778  2.1778  0.9850  0.6258  0.6258  0.5087  0.3342  0.3342  0.1959  0.1959
  0.1597  0.1272  0.0812  0.1055

 Free energy of the ion-electron system (eV)
  ---------------------------------------------------
  alpha Z        PSCENC =       100.43331480
  Ewald energy   TEWEN  =      8759.37681812
  -1/2 Hartree   DENC   =    -12261.07164399
  -exchange  EXHF       =         0.00000000
  -V(xc)+E(xc)   XCENC  =        19.21478433
  PAW double counting   =      3920.42858150    -3970.09207327
  entropy T*S    EENTRO =        -0.00150337
  eigenvalues    EBANDS =      -176.84021592
  atomic energy  EATOM  =      3565.76896863
  ---------------------------------------------------
  free energy    TOTEN  =       -42.78296918 eV

  energy without entropy =      -42.78146580  energy(sigma->0) =      -42.78259333


--------------------------------------------------------------------------------------------------------




----------------------------------------- Iteration    1(  25)  ---------------------------------------


    POTLOK:  cpu time    0.36: real time    0.36
    SETDIJ:  cpu time    0.06: real time    0.06
    EDDIAG:  cpu time   11.25: real time   11.27
  RMM-DIIS:  cpu time   40.02: real time   40.07
    ORTHCH:  cpu time    0.48: real time    0.47
       DOS:  cpu time    0.02: real time    0.02
    CHARGE:  cpu time    5.53: real time    5.54
    MIXING:  cpu time    0.02: real time    0.02
    --------------------------------------------
      LOOP:  cpu time   57.74: real time   57.81

 eigenvalue-minimisations  :  5806
 total energy-change (2. order) : 0.3967274E-01  (-0.1987546E-01)
 number of electron      47.9999988 magnetization       7.6025382
 augmentation part       25.0565181 magnetization       5.5138483

 Broyden mixing:
  rms(total) = 0.11215E+01    rms(broyden)= 0.11215E+01
  rms(prec ) = 0.12040E+01
  weight for this iteration     100.00

 eigenvalues of (default mixing * dielectric matrix)
  average eigenvalue GAMMA=   0.5895
  2.2333  2.2333  0.9832  0.6316  0.6316  0.5100  0.3130  0.3130  0.1959  0.1959
  0.0812  0.1583  0.1054  0.1286  0.1286

 Free energy of the ion-electron system (eV)
  ---------------------------------------------------
  alpha Z        PSCENC =       100.43331480
  Ewald energy   TEWEN  =      8759.37681812
  -1/2 Hartree   DENC   =    -12263.90170928
  -exchange  EXHF       =         0.00000000
  -V(xc)+E(xc)   XCENC  =        19.46607123
  PAW double counting   =      3927.01834631    -3976.82473264
  entropy T*S    EENTRO =        -0.00111024
  eigenvalues    EBANDS =      -174.07926336
  atomic energy  EATOM  =      3565.76896863
  ---------------------------------------------------
  free energy    TOTEN  =       -42.74329644 eV

  energy without entropy =      -42.74218620  energy(sigma->0) =      -42.74301888


--------------------------------------------------------------------------------------------------------




----------------------------------------- Iteration    1(  26)  ---------------------------------------


    POTLOK:  cpu time    0.37: real time    0.37
    SETDIJ:  cpu time    0.06: real time    0.06
    EDDIAG:  cpu time   11.28: real time   11.29
  RMM-DIIS:  cpu time   36.69: real time   36.73
    ORTHCH:  cpu time    0.48: real time    0.48
       DOS:  cpu time    0.02: real time    0.02
    CHARGE:  cpu time    5.51: real time    5.51
    MIXING:  cpu time    0.02: real time    0.02
    --------------------------------------------
      LOOP:  cpu time   54.42: real time   54.49

 eigenvalue-minimisations  :  5242
 total energy-change (2. order) : 0.6280501E-01  (-0.1832720E-01)
 number of electron      47.9999987 magnetization       8.3883717
 augmentation part       25.0667381 magnetization       6.2081279

 Broyden mixing:
  rms(total) = 0.10757E+01    rms(broyden)= 0.10757E+01
  rms(prec ) = 0.11513E+01
  weight for this iteration     100.00

 eigenvalues of (default mixing * dielectric matrix)
  average eigenvalue GAMMA=   0.7187
  2.7221  2.7221  0.9895  0.8897  0.8897  0.5539  0.5539  0.5017  0.5017  0.3091
  0.1959  0.1959  0.1600  0.1272  0.0812  0.1055

 Free energy of the ion-electron system (eV)
  ---------------------------------------------------
  alpha Z        PSCENC =       100.43331480
  Ewald energy   TEWEN  =      8759.37681812
  -1/2 Hartree   DENC   =    -12269.16656672
  -exchange  EXHF       =         0.00000000
  -V(xc)+E(xc)   XCENC  =        19.92789930
  PAW double counting   =      3937.26999827    -3987.28819676
  entropy T*S    EENTRO =        -0.00086439
  eigenvalues    EBANDS =      -169.00186267
  atomic energy  EATOM  =      3565.76896863
  ---------------------------------------------------
  free energy    TOTEN  =       -42.68049142 eV

  energy without entropy =      -42.67962703  energy(sigma->0) =      -42.68027533


--------------------------------------------------------------------------------------------------------




----------------------------------------- Iteration    1(  27)  ---------------------------------------


    POTLOK:  cpu time    0.36: real time    0.36
    SETDIJ:  cpu time    0.06: real time    0.06
    EDDIAG:  cpu time   11.25: real time   11.27
  RMM-DIIS:  cpu time   37.77: real time   37.82
    ORTHCH:  cpu time    0.48: real time    0.48
       DOS:  cpu time    0.02: real time    0.02
    CHARGE:  cpu time    5.55: real time    5.56
    MIXING:  cpu time    0.03: real time    0.03
    --------------------------------------------
      LOOP:  cpu time   55.52: real time   55.59

 eigenvalue-minimisations  :  5418
 total energy-change (2. order) :-0.8065935E-01  (-0.2270431E-01)
 number of electron      47.9999987 magnetization      10.6345870
 augmentation part       25.0626631 magnetization       8.3433619

 Broyden mixing:
  rms(total) = 0.10267E+01    rms(broyden)= 0.10267E+01
  rms(prec ) = 0.11114E+01
  weight for this iteration     100.00

 eigenvalues of (default mixing * dielectric matrix)
  average eigenvalue GAMMA=   0.8778
  3.8823  3.8823  1.1419  1.1419  0.9379  0.5897  0.5897  0.5410  0.5410  0.5012
  0.3077  0.1959  0.1959  0.1600  0.1272  0.0812  0.1055

 Free energy of the ion-electron system (eV)
  ---------------------------------------------------
  alpha Z        PSCENC =       100.43331480
  Ewald energy   TEWEN  =      8759.37681812
  -1/2 Hartree   DENC   =    -12278.72648996
  -exchange  EXHF       =         0.00000000
  -V(xc)+E(xc)   XCENC  =        20.68761492
  PAW double counting   =      3955.98162988    -4006.40049175
  entropy T*S    EENTRO =        -0.00208643
  eigenvalues    EBANDS =      -159.88042897
  atomic energy  EATOM  =      3565.76896863
  ---------------------------------------------------
  free energy    TOTEN  =       -42.76115077 eV

  energy without entropy =      -42.75906434  energy(sigma->0) =      -42.76062916


--------------------------------------------------------------------------------------------------------




----------------------------------------- Iteration    1(  28)  ---------------------------------------


    POTLOK:  cpu time    0.36: real time    0.36
    SETDIJ:  cpu time    0.06: real time    0.06
    EDDIAG:  cpu time   11.21: real time   11.22
  RMM-DIIS:  cpu time   38.62: real time   38.66
    ORTHCH:  cpu time    0.48: real time    0.48
       DOS:  cpu time    0.02: real time    0.02
    CHARGE:  cpu time    5.57: real time    5.57
    MIXING:  cpu time    0.03: real time    0.03
    --------------------------------------------
      LOOP:  cpu time   56.34: real time   56.41

 eigenvalue-minimisations  :  5547
 total energy-change (2. order) :-0.1890038E+00  (-0.7635114E-01)
 number of electron      47.9999984 magnetization      10.8335298
 augmentation part       25.0484022 magnetization       8.2235203

 Broyden mixing:
  rms(total) = 0.86964E+00    rms(broyden)= 0.86958E+00
  rms(prec ) = 0.95548E+00
  weight for this iteration     100.00

 eigenvalues of (default mixing * dielectric matrix)
  average eigenvalue GAMMA=   0.8712
  3.8624  3.8624  1.2166  1.2166  0.9516  0.6896  0.6896  0.5338  0.5338  0.4917
  0.4602  0.3081  0.1959  0.1959  0.1600  0.1272  0.0812  0.1055

 Free energy of the ion-electron system (eV)
  ---------------------------------------------------
  alpha Z        PSCENC =       100.43331480
  Ewald energy   TEWEN  =      8759.37681812
  -1/2 Hartree   DENC   =    -12303.43010006
  -exchange  EXHF       =         0.00000000
  -V(xc)+E(xc)   XCENC  =        22.75342060
  PAW double counting   =      4008.69485472    -4060.16823063
  entropy T*S    EENTRO =        -0.00168433
  eigenvalues    EBANDS =      -136.37751642
  atomic energy  EATOM  =      3565.76896863
  ---------------------------------------------------
  free energy    TOTEN  =       -42.95015457 eV

  energy without entropy =      -42.94847023  energy(sigma->0) =      -42.94973348


--------------------------------------------------------------------------------------------------------




----------------------------------------- Iteration    1(  29)  ---------------------------------------


    POTLOK:  cpu time    0.38: real time    0.37
[...]
     29       0.7270      0.00000
     30       0.9088      0.00000
     31       0.9470      0.00000


--------------------------------------------------------------------------------------------------------


 soft charge-density along one line, spin component           1
         0         1         2         3         4         5         6         7         8         9
 total charge-density along one line
 
 soft charge-density along one line, spin component           2
         0         1         2         3         4         5         6         7         8         9
 total charge-density along one line
 
 pseudopotential strength for first ion, spin component:           1
-10.208  -0.000   0.000   0.011   0.000 -10.613  -0.000   0.000
 -0.000 -10.398   0.000  -0.000   0.011  -0.000 -10.799   0.000
  0.000   0.000 -10.255   0.000   0.000   0.000   0.000 -10.659
  0.011  -0.000   0.000 -10.398  -0.000   0.011  -0.000   0.000
  0.000   0.011   0.000  -0.000 -10.209   0.000   0.011   0.000
-10.613  -0.000   0.000   0.011   0.000 -10.979  -0.000   0.000
 -0.000 -10.799   0.000  -0.000   0.011  -0.000 -11.160   0.000
  0.000   0.000 -10.659   0.000   0.000   0.000   0.000 -11.025
  0.011  -0.000   0.000 -10.799  -0.000   0.011  -0.000   0.000
  0.000   0.011   0.000  -0.000 -10.614   0.000   0.011   0.000
  0.000   0.000   0.017   0.000   0.000   0.000   0.000   0.017
  0.000   0.000   0.031   0.000   0.000   0.000   0.000   0.031
 -0.000   0.004  -0.000   0.000   0.004  -0.000   0.003  -0.000
  0.000   0.000   0.003  -0.000   0.000   0.000   0.000   0.001
  0.004   0.000   0.000   0.004  -0.000   0.004   0.000   0.000
 -0.000   0.014  -0.000   0.000   0.004  -0.000   0.013  -0.000
  0.000   0.000   0.014  -0.000   0.000   0.000   0.000   0.012
  0.004   0.000   0.000   0.014  -0.000   0.004   0.000   0.000
 pseudopotential strength for first ion, spin component:           2
 -8.366   0.000  -0.000  -0.017  -0.000  -8.830   0.000  -0.000
  0.000  -8.265  -0.000  -0.000  -0.018   0.000  -8.731  -0.000
 -0.000  -0.000  -8.449  -0.000  -0.000  -0.000  -0.000  -8.911
 -0.017  -0.000  -0.000  -8.265   0.000  -0.017  -0.000  -0.000
 -0.000  -0.018  -0.000   0.000  -8.364  -0.000  -0.018  -0.000
 -8.830   0.000  -0.000  -0.017  -0.000  -9.253   0.000  -0.000
  0.000  -8.731  -0.000  -0.000  -0.018   0.000  -9.156  -0.000
 -0.000  -0.000  -8.911  -0.000  -0.000  -0.000  -0.000  -9.333
 -0.017  -0.000  -0.000  -8.730   0.000  -0.016  -0.000  -0.000
 -0.000  -0.018  -0.000   0.000  -8.828  -0.000  -0.017  -0.000
 -0.000  -0.000  -0.005  -0.000  -0.000  -0.000  -0.000  -0.006
 -0.000  -0.000  -0.011  -0.000  -0.000  -0.000  -0.000  -0.011
 -0.000  -0.033  -0.000  -0.000   0.004  -0.000  -0.032  -0.000
 -0.000   0.000  -0.038  -0.000  -0.000  -0.000   0.000  -0.038
  0.005  -0.000   0.000  -0.033  -0.000   0.004  -0.000   0.000
 -0.000  -0.035  -0.000  -0.000   0.004  -0.000  -0.034  -0.000
 -0.000   0.000  -0.040  -0.000  -0.000  -0.000   0.000  -0.040
  0.004  -0.000  -0.000  -0.035  -0.000   0.004  -0.000  -0.000
 total augmentation occupancy for first ion, spin component:           1
  2.448   0.001  -0.001  -0.070  -0.002  -1.119  -0.001   0.001   0.050   0.002  -0.000   0.000   0.000  -0.000   0.033  -0.000
  0.001   3.043  -0.001   0.001  -0.073  -0.001  -1.636   0.001  -0.001   0.053   0.000  -0.000  -0.185   0.000  -0.000  -0.026
 -0.001  -0.001   2.667  -0.001  -0.000   0.001   0.001  -1.198   0.001   0.000  -0.000   0.057  -0.000  -0.118   0.000   0.000
 -0.070   0.001  -0.001   3.046   0.001   0.051  -0.001   0.001  -1.639  -0.001   0.000   0.000  -0.000   0.000  -0.185  -0.000
 -0.002  -0.073  -0.000   0.001   2.459   0.002   0.052   0.000  -0.001  -1.127  -0.000   0.000   0.031  -0.000   0.000   0.002
 -1.119  -0.001   0.001   0.051   0.002   1.176   0.000  -0.000  -0.020  -0.001  -0.000  -0.000  -0.000   0.000   0.011   0.000
 -0.001  -1.636   0.001  -0.001   0.052   0.000   1.479  -0.001   0.001  -0.021  -0.001   0.000   0.308  -0.000   0.000  -0.016
  0.001   0.001  -1.198   0.001   0.000  -0.000  -0.001   1.195  -0.000  -0.000  -0.097  -0.025   0.000   0.237   0.000  -0.000
  0.050  -0.001   0.001  -1.639  -0.001  -0.020   0.001  -0.000   1.482   0.000  -0.000   0.000   0.000  -0.000   0.309  -0.000
  0.002   0.053   0.000  -0.001  -1.127  -0.001  -0.021  -0.000   0.000   1.182   0.000  -0.000   0.012   0.000  -0.000   0.000
 -0.000   0.000  -0.000   0.000  -0.000  -0.000  -0.001  -0.097  -0.000   0.000   1.966  -0.165  -0.000   0.306  -0.000   0.000
  0.000  -0.000   0.057   0.000   0.000  -0.000   0.000  -0.025   0.000  -0.000  -0.165   0.021   0.000  -0.036   0.000  -0.000
  0.000  -0.185  -0.000  -0.000   0.031  -0.000   0.308   0.000   0.000   0.012  -0.000   0.000   0.175  -0.000   0.000  -0.014
 -0.000   0.000  -0.118   0.000  -0.000   0.000  -0.000   0.237  -0.000   0.000   0.306  -0.036  -0.000   0.137  -0.000   0.000
  0.033  -0.000   0.000  -0.185   0.000   0.011   0.000   0.000   0.309  -0.000  -0.000   0.000   0.000  -0.000   0.176  -0.000
 -0.000  -0.026   0.000  -0.000   0.002   0.000  -0.016  -0.000  -0.000   0.000   0.000  -0.000  -0.014   0.000  -0.000   0.002
  0.000  -0.000  -0.041  -0.000   0.000  -0.000   0.000  -0.010   0.000  -0.000  -0.045   0.004   0.000  -0.016  -0.000  -0.000
  0.002  -0.000  -0.000  -0.026  -0.000   0.000  -0.000  -0.000  -0.016   0.000   0.000  -0.000  -0.000   0.000  -0.014   0.000
 total augmentation occupancy for first ion, spin component:           2
  2.239   0.002  -0.001  -0.088  -0.002  -0.936  -0.001   0.000   0.052   0.001   0.000   0.000   0.000  -0.000  -0.002  -0.000
  0.002   2.723  -0.001   0.001  -0.092  -0.001  -1.113   0.000  -0.001   0.050  -0.000   0.000  -0.032  -0.000  -0.000  -0.046
 -0.001  -0.001   2.340  -0.001  -0.000   0.000   0.000  -1.021   0.000   0.000   0.030   0.049  -0.000  -0.063  -0.000   0.000
 -0.088   0.001  -0.001   2.727   0.002   0.048  -0.001   0.000  -1.116  -0.001  -0.000   0.000  -0.000   0.000  -0.032  -0.000
 -0.002  -0.092  -0.000   0.002   2.250   0.001   0.054   0.000  -0.001  -0.942   0.000  -0.000  -0.003  -0.000   0.000   0.004
 -0.936  -0.001   0.000   0.048   0.001   0.176   0.001  -0.000  -0.033  -0.001  -0.000   0.000  -0.000   0.000   0.006   0.000
 -0.001  -1.113   0.000  -0.001   0.054   0.001   0.281  -0.000   0.000  -0.035   0.000  -0.000  -0.037   0.000   0.000   0.027
  0.000   0.000  -1.021   0.000   0.000  -0.000  -0.000   0.244  -0.000   0.000   0.021  -0.022  -0.000  -0.014  -0.000  -0.000
  0.052  -0.001   0.000  -1.116  -0.001  -0.033   0.000  -0.000   0.282   0.001   0.000  -0.000   0.000   0.000  -0.037   0.000
  0.001   0.050   0.000  -0.001  -0.942  -0.001  -0.035   0.000   0.001   0.180  -0.000   0.000   0.006   0.000  -0.000  -0.003
  0.000  -0.000   0.030  -0.000   0.000  -0.000   0.000   0.021   0.000  -0.000  -0.280   0.094  -0.000  -0.060   0.000   0.000
  0.000   0.000   0.049   0.000  -0.000   0.000  -0.000  -0.022  -0.000   0.000   0.094  -0.011  -0.000   0.013  -0.000  -0.000
  0.000  -0.032  -0.000  -0.000  -0.003  -0.000  -0.037  -0.000   0.000   0.006  -0.000  -0.000  -0.012   0.000  -0.000   0.004
 -0.000  -0.000  -0.063   0.000  -0.000   0.000   0.000  -0.014   0.000   0.000  -0.060   0.013   0.000  -0.015   0.000  -0.000
 -0.002  -0.000  -0.000  -0.032   0.000   0.006   0.000  -0.000  -0.037  -0.000   0.000  -0.000  -0.000   0.000  -0.013   0.000
 -0.000  -0.046   0.000  -0.000   0.004   0.000   0.027  -0.000   0.000  -0.003   0.000  -0.000   0.004  -0.000   0.000   0.000
  0.000   0.000  -0.046   0.000   0.000  -0.000  -0.000   0.027  -0.000  -0.000   0.004  -0.003   0.000   0.004   0.000  -0.000
  0.004  -0.000   0.000  -0.046  -0.000  -0.002   0.000  -0.000   0.027   0.000   0.000  -0.000   0.000  -0.000   0.004  -0.000


------------------------ aborting loop because EDIFF is reached ----------------------------------------



 ----------------------------------------------------------------------------- 
|                                                                             |
|           W    W    AA    RRRRR   N    N  II  N    N   GGGG   !!!           |
|           W    W   A  A   R    R  NN   N  II  NN   N  G    G  !!!           |
|           W    W  A    A  R    R  N N  N  II  N N  N  G       !!!           |
|           W WW W  AAAAAA  RRRRR   N  N N  II  N  N N  G  GGG   !            |
|           WW  WW  A    A  R   R   N   NN  II  N   NN  G    G                |
|           W    W  A    A  R    R  N    N  II  N    N   GGGG   !!!           |
|                                                                             |
|      Your highest band is occupied at some k-points! Unless you are         |
|      performing a calculation for an insulator or semiconductor, without    |
|      unoccupied bands, you have included TOO FEW BANDS!! Please increase    |
|      the parameter NBANDS in file INCAR to ensure that the highest band   |
|      is unoccupied at all k-points. It is always recommended to             |
|      include a few unoccupied bands to accelerate the convergence of        |
|      molecular dynamics runs (even for insulators or semiconductors).       |
|      Because the presence of unoccupied bands improves wavefunction         |
|      prediction, and helps to suppress 'band-crossings.'                    |
|      Following all k-points will be listed (with the Fermi weights of       |
|      the highest band given in paranthesis) ... :                           |
|                                                                             |
|                          1       ( 1.00688)                                 |
|                          2       ( 0.99859)                                 |
|                          3       ( 1.00000)                                 |
|                          4       ( 1.00000)                                 |
|                          5       ( 0.92919)                                 |
|                          6       ( 0.99863)                                 |
|                          7       ( 0.99859)                                 |
|                          8       ( 1.00000)                                 |
|                          9       ( 1.00000)                                 |
|                         10       ( 0.99785)                                 |
|                         11       ( 1.01131)                                 |
|                         12       ( 0.99760)                                 |
|                         13       ( 1.00000)                                 |
|                         14       ( 1.00000)                                 |
|                         15       ( 1.00000)                                 |
|                         16       ( 1.00000)                                 |
|                         17       ( 1.00000)                                 |
|                         18       ( 1.00000)                                 |
|                         19       ( 0.99580)                                 |
|                         20       ( 1.00339)                                 |
|                         21       ( 1.00170)                                 |
|                         22       ( 0.99583)                                 |
|                         23       ( 1.00000)                                 |
|                         24       ( 1.00000)                                 |
|                         25       ( 1.00000)                                 |
|                         26       ( 1.00000)                                 |
|                         27       ( 1.00000)                                 |
|                         28       ( 0.99777)                                 |
|                         29       ( 1.00301)                                 |
|                         30       ( 0.99926)                                 |
|                         31       ( 1.00217)                                 |
|                         32       ( 0.99766)                                 |
|                         33       ( 0.92380)                                 |
|                         34       ( 0.99787)                                 |
|                         35       ( 0.99581)                                 |
|                         36       ( 0.99772)                                 |
|                         37       ( 0.92968)                                 |
|                         38       ( 1.01107)                                 |
|                         39       ( 1.00220)                                 |
|                         40       ( 1.00305)                                 |
|                         41       ( 1.01115)                                 |
|                                                                             |
|      The total occupancy of band no.    31 is   0.99516 electrons ...       |
|                                                                             |
 ----------------------------------------------------------------------------- 

    CHARGE:  cpu time    5.59: real time    5.60
    FORLOC:  cpu time    0.02: real time    0.01
    FORNL :  cpu time   14.62: real time   14.67
    STRESS:  cpu time   11.59: real time   11.62
    FORCOR:  cpu time    0.38: real time    0.41
    FORHAR:  cpu time    0.04: real time    0.04
    MIXING:  cpu time    0.01: real time    0.01

  FORCE on cell =-STRESS in cart. coord.  units (eV):
  Direction    XX          YY          ZZ          XY          YZ          ZX
  --------------------------------------------------------------------------------------
  Alpha Z   100.43331   100.43331   100.43331
  Ewald   11478.93801 11479.35401-13763.67561    -0.21438    -0.32955    -0.25539
  Hartree 12288.47464 12288.59336-11858.39617    -0.07671    -0.15422    -0.11080
  E(xc)    -237.14836  -237.15027  -237.49801     0.00094     0.00101     0.00075
  Local  -24135.90510-24136.37007 25253.85504     0.26591     0.48233     0.35542
  n-local  -160.72887  -160.70158  -164.63149    -0.00446    -0.00476    -0.00947
  augment   230.90243   230.87165   231.15352     0.01084    -0.00513     0.00457
  Kinetic   433.52985   433.51001   438.30647     0.01811     0.00065     0.00747
  Fock        0.00000     0.00000     0.00000     0.00000     0.00000     0.00000
  -------------------------------------------------------------------------------------
  Total      -1.50409    -1.45958    -0.45294     0.00023    -0.00967    -0.00745
  in kB      -9.72735    -9.43951    -2.92928     0.00151    -0.06252    -0.04820
  external pressure =       -7.37 kB  Pullay stress =        0.00 kB


 VOLUME and BASIS-vectors are now :
 -----------------------------------------------------------------------------
  energy-cutoff  :      350.00
  volume of cell :      247.74
      direct lattice vectors                 reciprocal lattice vectors
     3.986512170  0.000000000  0.000000000     0.250845842 -0.144825914  0.000000000
     1.993256080  3.452420810  0.000000000     0.000000000  0.289651828  0.000000000
     0.000000000  0.000000000 18.000000000     0.000000000  0.000000000  0.055555556

  length of vectors
     3.986512170  3.986512166 18.000000000     0.289651828  0.289651828  0.055555556


 FORCES acting on ions
    electron-ion (+dipol)            ewald-force                    non-local-force                 convergence-correction
 -----------------------------------------------------------------------------------------------
   -.125E+00 -.145E+00 0.134E+04   0.125E+00 0.147E+00 -.133E+04   0.148E-02 -.168E-02 -.777E+01   -.347E-04 0.180E-04 -.409E-02
   -.121E-01 -.132E+00 0.877E+03   0.125E-01 0.135E+00 -.877E+03   0.148E-02 0.173E-02 -.184E+00   -.131E-03 0.139E-03 0.166E-01
   0.140E+00 0.381E+00 0.439E+03   -.141E+00 -.388E+00 -.439E+03   0.274E-02 0.538E-02 0.579E+00   -.220E-02 -.761E-03 0.653E-01
   -.525E-01 -.267E+00 -.419E+03   0.547E-01 0.275E+00 0.420E+03   0.409E-03 -.403E-02 -.511E+00   -.331E-02 -.235E-02 0.886E-01
   -.101E-01 0.111E+00 -.915E+03   0.122E-01 -.111E+00 0.915E+03   0.136E-02 0.280E-02 0.214E+00   -.535E-02 -.953E-02 0.810E-01
   0.642E-01 0.579E-01 -.132E+04   -.628E-01 -.577E-01 0.132E+04   0.245E-02 0.701E-02 0.721E+01   -.471E-02 -.645E-02 0.764E-01
 -----------------------------------------------------------------------------------------------
   0.476E-02 0.642E-02 0.146E+00   -.306E-13 0.329E-14 0.227E-12   0.992E-02 0.112E-01 -.466E+00   -.157E-01 -.189E-01 0.324E+00
 
 
 POSITION                                       TOTAL-FORCE (eV/Angst)
 -----------------------------------------------------------------------------------
      0.00000      0.00000      0.00000         0.001458      0.000519      0.379546
      1.99400      1.15130      0.81410         0.001994      0.005831     -0.385931
      3.98799      2.30375      1.40815        -0.000633     -0.002529      0.002986
      0.00203      0.00167      2.43804        -0.000539      0.001169      0.004605
      1.99570      1.15369      3.10029        -0.001626     -0.005980     -0.000206
      3.98931      2.30444      3.78466        -0.000654      0.000990     -0.001000
 -----------------------------------------------------------------------------------
    total drift:                               -0.001057     -0.001311      0.003895


--------------------------------------------------------------------------------------------------------



  FREE ENERGIE OF THE ION-ELECTRON SYSTEM (eV)
  ---------------------------------------------------
  free  energy   TOTEN  =       -44.59942317 eV

  energy  without entropy=      -44.60099642  energy(sigma->0) =      -44.59981648
 
 d Force = 0.2057058E-04[ 0.993E-05, 0.312E-04]  d Energy =-0.1530706E-05 0.221E-04
 d Force = 0.3165292E+01[ 0.317E+01, 0.317E+01]  d Ewald  = 0.3165292E+01-0.464E-07


--------------------------------------------------------------------------------------------------------


    POTLOK:  cpu time    0.43: real time    0.59


--------------------------------------------------------------------------------------------------------


 Conjugate gradient step on ions:
 trial-energy change:    0.000002  1 .order   -0.000021   -0.000031   -0.000010
  (g-gl).g = 0.168E-04      g.g   = 0.146E-04  gl.gl    = 0.215E-04
 g(Force)  = 0.146E-04   g(Stress)= 0.000E+00 ortho     =-0.672E-06
 gamma     =   0.77840
 trial     =   2.21973
 opt step  =   3.25526  (harmonic =   3.25526) maximal distance =0.00269401
 next E    =   -44.599448   (d E  =  -0.00002)


--------------------------------------------------------------------------------------------------------


  
 reached required accuracy - stopping structural energy minimisation
     LOOP+:  cpu time  319.71: real time  321.01
    4ORBIT:  cpu time    0.00: real time    0.03

 total amount of memory used by VASP on root node   234819. kBytes
========================================================================

   base      :      30000. kBytes
   nonl-proj :      22464. kBytes
   fftplans  :       7492. kBytes
   grid      :      18009. kBytes
   one-center:        186. kBytes
   wavefun   :     156668. kBytes
 
  
  
 General timing and accounting informations for this job:
 ========================================================
  
                  Total CPU time used (sec):    22766.076
                            User time (sec):    22657.340
                          System time (sec):      108.736
                         Elapsed time (sec):    22831.776
  
                   Maximum memory used (kb):      545352.
                   Average memory used (kb):           0.
  
                          Minor page faults:      1344211
                          Major page faults:         1658
                 Voluntary context switches:         1954
