<?xml version="1.0" encoding="ISO-8859-1"?>
<modeling>
 <generator>
  <i name="program" type="string">vasp </i>
  <i name="version" type="string">5.3.3  </i>
  <i name="subversion" type="string">18Dez12 (build Sep  7 2015 22:32:56) complex                          parallel </i>
  <i name="platform" type="string">LinuxIFC </i>
  <i name="date" type="string">2022 12 02 </i>
  <i name="time" type="string">15:50:36 </i>
 </generator>
 <incar>
  <i type="string" name="SYSTEM"> Crystal</i>
  <i type="int" name="ISTART">     0</i>
  <i type="string" name="PREC">normal</i>
  <i type="string" name="ALGO"> fast</i>
  <i type="int" name="NSIM">     4</i>
  <i type="int" name="ISPIN">     2</i>
  <i type="int" name="ICHARG">     2</i>
  <i type="int" name="NELMDL">   -10</i>
  <i type="int" name="NELMIN">     4</i>
  <i type="int" name="IBRION">     2</i>
  <i name="EDIFF">      0.00001000</i>
  <i name="EDIFFG">     -0.01000000</i>
  <i type="int" name="NSW">   300</i>
  <i name="ENCUT">    350.00000000</i>
  <i type="logical" name="LREAL"> F  </i>
  <i type="int" name="ISMEAR">     2</i>
  <i name="SIGMA">      0.10000000</i>
  <i type="logical" name="LWAVE"> F  </i>
  <i type="logical" name="LCHARG"> F  </i>
 </incar>
 <kpoints>
  <generation param="Gamma">
   <v type="int" name="divisions">       9        9        1 </v>
   <v name="usershift">      0.00000000       0.00000000       0.00000000 </v>
   <v name="genvec1">      0.11111111       0.00000000       0.00000000 </v>
   <v name="genvec2">      0.00000000       0.11111111       0.00000000 </v>
   <v name="genvec3">      0.00000000       0.00000000       1.00000000 </v>
   <v name="shift">      0.00000000       0.00000000       0.00000000 </v>
  </generation>
  <varray name="kpointlist" >
   <v>       0.00000000       0.00000000       0.00000000 </v>
   <v>       0.11111111       0.00000000       0.00000000 </v>
   <v>       0.22222222       0.00000000       0.00000000 </v>
   <v>       0.33333333       0.00000000       0.00000000 </v>
   <v>       0.44444444       0.00000000       0.00000000 </v>
   <v>       0.00000000       0.11111111       0.00000000 </v>
   <v>       0.11111111       0.11111111       0.00000000 </v>
   <v>       0.22222222       0.11111111       0.00000000 </v>
   <v>       0.33333333       0.11111111       0.00000000 </v>
   <v>       0.44444444       0.11111111       0.00000000 </v>
   <v>      -0.44444444       0.11111111       0.00000000 </v>
   <v>      -0.33333333       0.11111111       0.00000000 </v>
   <v>      -0.22222222       0.11111111       0.00000000 </v>
   <v>      -0.11111111       0.11111111       0.00000000 </v>
   <v>       0.00000000       0.22222222       0.00000000 </v>
   <v>       0.11111111       0.22222222       0.00000000 </v>
   <v>       0.22222222       0.22222222       0.00000000 </v>
   <v>       0.33333333       0.22222222       0.00000000 </v>
   <v>       0.44444444       0.22222222       0.00000000 </v>
   <v>      -0.44444444       0.22222222       0.00000000 </v>
   <v>      -0.33333333       0.22222222       0.00000000 </v>
   <v>      -0.22222222       0.22222222       0.00000000 </v>
   <v>      -0.11111111       0.22222222       0.00000000 </v>
   <v>       0.00000000       0.33333333       0.00000000 </v>
   <v>       0.11111111       0.33333333       0.00000000 </v>
   <v>       0.22222222       0.33333333       0.00000000 </v>
   <v>       0.33333333       0.33333333       0.00000000 </v>
   <v>       0.44444444       0.33333333       0.00000000 </v>
   <v>      -0.44444444       0.33333333       0.00000000 </v>
   <v>      -0.33333333       0.33333333       0.00000000 </v>
   <v>      -0.22222222       0.33333333       0.00000000 </v>
   <v>      -0.11111111       0.33333333       0.00000000 </v>
   <v>       0.00000000       0.44444444       0.00000000 </v>
   <v>       0.11111111       0.44444444       0.00000000 </v>
   <v>       0.22222222       0.44444444       0.00000000 </v>
   <v>       0.33333333       0.44444444       0.00000000 </v>
   <v>       0.44444444       0.44444444       0.00000000 </v>
   <v>      -0.44444444       0.44444444       0.00000000 </v>
   <v>      -0.33333333       0.44444444       0.00000000 </v>
   <v>      -0.22222222       0.44444444       0.00000000 </v>
   <v>      -0.11111111       0.44444444       0.00000000 </v>
  </varray>
  <varray name="weights" >
   <v>       0.01234568 </v>
   <v>       0.02469136 </v>
   <v>       0.02469136 </v>
   <v>       0.02469136 </v>
   <v>       0.02469136 </v>
   <v>       0.02469136 </v>
   <v>       0.02469136 </v>
   <v>       0.02469136 </v>
   <v>       0.02469136 </v>
   <v>       0.02469136 </v>
   <v>       0.02469136 </v>
   <v>       0.02469136 </v>
   <v>       0.02469136 </v>
   <v>       0.02469136 </v>
   <v>       0.02469136 </v>
   <v>       0.02469136 </v>
   <v>       0.02469136 </v>
   <v>       0.02469136 </v>
   <v>       0.02469136 </v>
   <v>       0.02469136 </v>
   <v>       0.02469136 </v>
   <v>       0.02469136 </v>
   <v>       0.02469136 </v>
   <v>       0.02469136 </v>
   <v>       0.02469136 </v>
   <v>       0.02469136 </v>
   <v>       0.02469136 </v>
   <v>       0.02469136 </v>
   <v>       0.02469136 </v>
   <v>       0.02469136 </v>
   <v>       0.02469136 </v>
   <v>       0.02469136 </v>
   <v>       0.02469136 </v>
   <v>       0.02469136 </v>
   <v>       0.02469136 </v>
   <v>       0.02469136 </v>
   <v>       0.02469136 </v>
   <v>       0.02469136 </v>
   <v>       0.02469136 </v>
   <v>       0.02469136 </v>
   <v>       0.02469136 </v>
  </varray>
 </kpoints>
 <parameters>
  <separator name="general" >
   <i type="string" name="SYSTEM">Crystal</i>
   <i type="logical" name="LCOMPAT"> F  </i>
  </separator>
  <separator name="electronic" >
   <i type="string" name="PREC">normal</i>
   <i name="ENMAX">    350.00000000</i>
   <i name="ENAUG">    511.36800000</i>
   <i name="EDIFF">      0.00001000</i>
   <i type="int" name="IALGO">    68</i>
   <i type="int" name="IWAVPR">    11</i>
   <i type="int" name="NBANDS">    31</i>
   <i name="NELECT">     48.00000000</i>
   <i type="int" name="TURBO">     0</i>
   <i type="int" name="IRESTART">     0</i>
   <i type="int" name="NREBOOT">     0</i>
   <i type="int" name="NMIN">     0</i>
   <i name="EREF">      0.00000000</i>
   <separator name="electronic smearing" >
    <i type="int" name="ISMEAR">     2</i>
    <i name="SIGMA">      0.10000000</i>
    <i name="KSPACING">      0.50000000</i>
    <i type="logical" name="KGAMMA"> T  </i>
   </separator>
   <separator name="electronic projectors" >
    <i type="logical" name="LREAL"> F  </i>
    <v name="ROPT">      0.00000000</v>
    <i type="int" name="LMAXPAW">  -100</i>
    <i type="int" name="LMAXMIX">     2</i>
    <i type="logical" name="NLSPLINE"> F  </i>
   </separator>
   <separator name="electronic startup" >
    <i type="int" name="ISTART">     0</i>
    <i type="int" name="ICHARG">     2</i>
    <i type="int" name="INIWAV">     1</i>
   </separator>
   <separator name="electronic spin" >
    <i type="int" name="ISPIN">     2</i>
    <i type="logical" name="LNONCOLLINEAR"> F  </i>
    <v name="MAGMOM">      1.00000000      1.00000000      1.00000000      1.00000000      1.00000000      1.00000000</v>
    <i name="NUPDOWN">     -1.00000000</i>
    <i type="logical" name="LSORBIT"> F  </i>
    <v name="SAXIS">      0.00000000      0.00000000      1.00000000</v>
    <i type="logical" name="LSPIRAL"> F  </i>
    <v name="QSPIRAL">      0.00000000      0.00000000      0.00000000</v>
    <i type="logical" name="LZEROZ"> F  </i>
   </separator>
   <separator name="electronic exchange-correlation" >
    <i type="logical" name="LASPH"> F  </i>
    <i type="logical" name="LMETAGGA"> F  </i>
   </separator>
   <separator name="electronic convergence" >
    <i type="int" name="NELM">    60</i>
    <i type="int" name="NELMDL">   -10</i>
    <i type="int" name="NELMIN">     4</i>
    <i name="ENINI">    350.00000000</i>
    <separator name="electronic convergence detail" >
     <i type="logical" name="LDIAG"> T  </i>
     <i type="logical" name="LSUBROT"> T  </i>
     <i name="WEIMIN">      0.00100000</i>
     <i name="EBREAK">      0.00000008</i>
     <i name="DEPER">      0.30000000</i>
     <i type="int" name="NRMM">     4</i>
     <i name="TIME">      0.40000000</i>
    </separator>
   </separator>
   <separator name="electronic mixer" >
    <i name="AMIX">      0.40000000</i>
    <i name="BMIX">      1.00000000</i>
    <i name="AMIN">      0.10000000</i>
    <i name="AMIX_MAG">      1.60000000</i>
    <i name="BMIX_MAG">      1.00000000</i>
    <separator name="electronic mixer details" >
     <i type="int" name="IMIX">     4</i>
     <i type="int" name="MAXMIX">   -45</i>
     <i name="WC">    100.00000000</i>
     <i type="int" name="INIMIX">     1</i>
     <i type="int" name="MIXPRE">     1</i>
     <i type="int" name="MREMOVE">     5</i>
    </separator>
   </separator>
   <separator name="electronic dipolcorrection" >
    <i type="logical" name="LDIPOL"> F  </i>
    <i type="logical" name="LMONO"> F  </i>
    <i type="int" name="IDIPOL">     0</i>
    <i name="EPSILON">      1.00000000</i>
    <v name="DIPOL">   -100.00000000   -100.00000000   -100.00000000</v>
    <i name="EFIELD">      0.00000000</i>
   </separator>
  </separator>
  <separator name="grids" >
   <i type="int" name="NGX">    18</i>
   <i type="int" name="NGY">    18</i>
   <i type="int" name="NGZ">    84</i>
   <i type="int" name="NGXF">    36</i>
   <i type="int" name="NGYF">    36</i>
   <i type="int" name="NGZF">   168</i>
   <i type="logical" name="ADDGRID"> F  </i>
  </separator>
  <separator name="ionic" >
   <i type="int" name="NSW">   300</i>
   <i type="int" name="IBRION">     2</i>
   <i type="int" name="ISIF">     2</i>
   <i name="PSTRESS">      0.00000000</i>
   <i name="EDIFFG">     -0.01000000</i>
   <i type="int" name="NFREE">     1</i>
   <i name="POTIM">      0.50000000</i>
   <i name="SMASS">     -3.00000000</i>
   <i name="SCALEE">      1.00000000</i>
  </separator>
  <separator name="ionic md" >
   <i name="TEBEG">      0.00010000</i>
   <i name="TEEND">      0.00010000</i>
   <i type="int" name="NBLOCK">     1</i>
   <i type="int" name="KBLOCK">   300</i>
   <i type="int" name="NPACO">   256</i>
   <i name="APACO">     16.00000000</i>
  </separator>
  <separator name="symmetry" >
   <i type="int" name="ISYM">     2</i>
   <i name="SYMPREC">      0.00001000</i>
  </separator>
  <separator name="dos" >
   <i type="logical" name="LORBIT"> F  </i>
   <v name="RWIGS">     -1.00000000</v>
   <i type="int" name="NEDOS">   301</i>
   <i name="EMIN">     10.00000000</i>
   <i name="EMAX">    -10.00000000</i>
   <i name="EFERMI">      0.00000000</i>
  </separator>
  <separator name="writing" >
   <i type="int" name="NWRITE">     2</i>
   <i type="logical" name="LWAVE"> F  </i>
   <i type="logical" name="LCHARG"> F  </i>
   <i type="logical" name="LPARD"> F  </i>
   <i type="logical" name="LVTOT"> F  </i>
   <i type="logical" name="LVHAR"> F  </i>
   <i type="logical" name="LELF"> F  </i>
   <i type="logical" name="LOPTICS"> F  </i>
   <v name="STM">      0.00000000      0.00000000      0.00000000      0.00000000      0.00000000      0.00000000      0.00000000</v>
  </separator>
  <separator name="performance" >
   <i type="int" name="NPAR">     1</i>
   <i type="int" name="NSIM">     4</i>
   <i type="int" name="NBLK">    -1</i>
   <i type="logical" name="LPLANE"> T  </i>
   <i type="logical" name="LSCALAPACK"> F  </i>
   <i type="logical" name="LSCAAWARE"> F  </i>
   <i type="logical" name="LSCALU"> F  </i>
   <i type="logical" name="LASYNC"> F  </i>
   <i type="logical" name="LORBITALREAL"> F  </i>
  </separator>
  <separator name="miscellaneous" >
   <i type="int" name="IDIOT">     3</i>
   <i type="logical" name="LMUSIC"> F  </i>
   <v name="POMASS">     55.84700000</v>
   <v name="DARWINR">      0.00000000</v>
   <v name="DARWINV">      1.00000000</v>
   <i type="logical" name="LCORR"> T  </i>
  </separator>
  <i type="logical" name="GGA_COMPAT"> T  </i>
  <i type="logical" name="LBERRY"> F  </i>
  <i type="int" name="ICORELEVEL">     0</i>
  <i type="logical" name="LDAU"> F  </i>
  <i type="int" name="I_CONSTRAINED_M">     0</i>
  <separator name="electronic exchange-correlation" >
   <i type="string" name="GGA">--</i>
   <i type="int" name="VOSKOWN">     0</i>
   <i type="logical" name="LHFCALC"> F  </i>
   <i type="string" name="PRECFOCK"></i>
   <i type="logical" name="LSYMGRAD"> F  </i>
   <i type="logical" name="LHFONE"> F  </i>
   <i type="logical" name="LRHFCALC"> F  </i>
   <i type="logical" name="LTHOMAS"> F  </i>
   <i type="logical" name="LMODELHF"> F  </i>
   <i name="ENCUT4O">     -1.00000000</i>
   <i type="int" name="EXXOEP">     0</i>
   <i type="int" name="FOURORBIT">     0</i>
   <i name="AEXX">      0.00000000</i>
   <i name="HFALPHA">      0.00000000</i>
   <i name="MCALPHA">      0.00000000</i>
   <i name="ALDAX">      1.00000000</i>
   <i name="AGGAX">      1.00000000</i>
   <i name="ALDAC">      1.00000000</i>
   <i name="AGGAC">      1.00000000</i>
   <i type="int" name="NKREDX">     1</i>
   <i type="int" name="NKREDY">     1</i>
   <i type="int" name="NKREDZ">     1</i>
   <i type="logical" name="SHIFTRED"> F  </i>
   <i type="logical" name="ODDONLY"> F  </i>
   <i type="logical" name="EVENONLY"> F  </i>
   <i type="int" name="LMAXFOCK">     0</i>
   <i type="int" name="NMAXFOCKAE">     0</i>
   <i type="logical" name="LFOCKAEDFT"> F  </i>
   <i name="HFSCREEN">      0.00000000</i>
   <i name="HFSCREENC">      0.00000000</i>
   <i type="int" name="NBANDSGWLOW">     0</i>
  </separator>
  <separator name="vdW DFT" >
   <i type="logical" name="LUSE_VDW"> F  </i>
   <i name="Zab_VDW">     -0.84910000</i>
   <i name="PARAM1">      0.12340000</i>
   <i name="PARAM2">      1.00000000</i>
   <i name="PARAM3">      0.00000000</i>
  </separator>
  <separator name="model GW" >
   <i type="int" name="MODEL_GW">     0</i>
   <i name="MODEL_EPS0">     24.77361164</i>
   <i name="MODEL_ALPHA">      1.00000000</i>
  </separator>
  <separator name="linear response parameters" >
   <i type="logical" name="LEPSILON"> F  </i>
   <i type="logical" name="LRPA"> F  </i>
   <i type="logical" name="LNABLA"> F  </i>
   <i type="logical" name="LVEL"> F  </i>
   <i type="int" name="KINTER">     0</i>
   <i name="CSHIFT">      0.10000000</i>
   <i name="OMEGAMAX">     -1.00000000</i>
   <i name="DEG_THRESHOLD">      0.00200000</i>
  </separator>
  <separator name="orbital magnetization" >
   <i type="logical" name="NUCIND"> F  </i>
   <v name="MAGPOS">      0.00000000      0.00000000      0.00000000</v>
   <i type="logical" name="LNICSALL"> T  </i>
   <i type="logical" name="ORBITALMAG"> F  </i>
   <i type="logical" name="LMAGBLOCH"> F  </i>
   <i type="logical" name="LCHIMAG"> F  </i>
   <i type="logical" name="LGAUGE"> T  </i>
   <i type="int" name="MAGATOM">     0</i>
   <v name="MAGDIPOL">      0.00000000      0.00000000      0.00000000</v>
   <v name="AVECCONST">      0.00000000      0.00000000      0.00000000</v>
  </separator>
  <separator name="response functions" >
   <i type="logical" name="LADDER"> F  </i>
   <i type="logical" name="LFXC"> F  </i>
   <i type="logical" name="LHARTREE"> T  </i>
   <i type="int" name="IBSE">     0</i>
   <i type="logical" name="LTCTE"> F  </i>
   <i type="logical" name="LTETE"> F  </i>
   <i type="logical" name="LTRIPLET"> F  </i>
   <i type="logical" name="LFXCEPS"> F  </i>
   <i type="logical" name="L2ORDER"> F  </i>
   <i type="logical" name="LUSEW"> F  </i>
   <i name="ENCUTGW">     -2.00000000</i>
   <i name="ENCUTGWSOFT">     -2.00000000</i>
   <i name="ENCUTLF">     -1.00000000</i>
   <i type="int" name="LMAXMP2">    -1</i>
   <i name="SCISSOR">      0.00000000</i>
   <i type="int" name="NOMEGA">     0</i>
   <i type="int" name="NOMEGAR">     0</i>
   <i type="int" name="NBANDSGW">    -1</i>
   <i type="int" name="NBANDSO">    -1</i>
   <i type="int" name="NBANDSV">    -1</i>
   <i type="int" name="NELM">     1</i>
   <i type="int" name="DIM">     3</i>
   <i type="int" name="ANTIRES">     0</i>
   <i name="OMEGAMAX">    -30.00000000</i>
   <i name="OMEGATL">   -200.00000000</i>
   <i type="int" name="OMEGAGRID">     0</i>
   <i name="CSHIFT">     -0.10000000</i>
   <i type="logical" name="SELFENERGY"> F  </i>
   <i type="logical" name="LSPECTRAL"> F  </i>
   <i type="logical" name="ODDONLYGW"> F  </i>
   <i type="logical" name="EVENONLYGW"> F  </i>
   <i type="int" name="NKREDLFX">     1</i>
   <i type="int" name="NKREDLFY">     1</i>
   <i type="int" name="NKREDLFZ">     1</i>
   <i type="int" name="MAXMEM">  1800</i>
   <i type="int" name="TELESCOPE">     0</i>
  </separator>
 </parameters>
 <atominfo>
  <atoms>       6 </atoms>
  <types>       1 </types>
  <array name="atoms" >
   <dimension dim="1">ion</dimension>
   <field type="string">element</field>
   <field type="int">atomtype</field>
   <set>
    <rc><c>Fe</c><c>   1</c></rc>
    <rc><c>Fe</c><c>   1</c></rc>
    <rc><c>Fe</c><c>   1</c></rc>
    <rc><c>Fe</c><c>   1</c></rc>
    <rc><c>Fe</c><c>   1</c></rc>
    <rc><c>Fe</c><c>   1</c></rc>
   </set>
  </array>
  <array name="atomtypes" >
   <dimension dim="1">type</dimension>
   <field type="int">atomspertype</field>
   <field type="string">element</field>
   <field>mass</field>
   <field>valence</field>
   <field type="string">pseudopotential</field>
   <set>
    <rc><c>   6</c><c>Fe</c><c>     55.84700000</c><c>      8.00000000</c><c>  PAW_PBE Fe 06Sep2000                  </c></rc>
   </set>
  </array>
 </atominfo>
 <structure name="initialpos" >
  <crystal>
   <varray name="basis" >
    <v>       3.98651217       0.00000000       0.00000000 </v>
    <v>       1.99325608       3.45242081       0.00000000 </v>
    <v>       0.00000000       0.00000000      18.00000000 </v>
   </varray>
   <i name="volume">    247.73611635 </i>
   <varray name="rec_basis" >
    <v>       0.25084584      -0.14482591       0.00000000 </v>
    <v>       0.00000000       0.28965183       0.00000000 </v>
    <v>       0.00000000       0.00000000       0.05555556 </v>
   </varray>
  </crystal>
  <varray name="positions" >
   <v>       0.00000000       0.00000000       0.00000000 </v>
   <v>       0.33344853       0.33347615       0.04522778 </v>
   <v>       0.66692468       0.66652385       0.09045000 </v>
   <v>       0.00039830       0.00000000       0.13567778 </v>
   <v>       0.33385997       0.33307667       0.18090556 </v>
   <v>       0.66732298       0.66652385       0.22612778 </v>
  </varray>
  <varray name="selective"  type="logical" >
   <v type="logical" >  F  F  F </v>
   <v type="logical" >  F  F  F </v>
   <v type="logical" >  T  T  T </v>
   <v type="logical" >  T  T  T </v>
   <v type="logical" >  T  T  T </v>
   <v type="logical" >  T  T  T </v>
  </varray>
  <nose>
   <v>      -3.00000000       0.00000000       0.00010000       0.00010000 </v>
  </nose>
 </structure>
 <calculation>
  <scstep>
   <time name="dav">   43.59   43.68</time>
   <time name="total">   44.03   44.23</time>
   <energy>
    <i name="alphaZ">    100.43331480 </i>
    <i name="ewald">   8759.37681812 </i>
    <i name="hartreedc"> -12272.89080727 </i>
    <i name="XCdc">     20.76515705 </i>
    <i name="pawpsdc">   3328.36036734 </i>
    <i name="pawaedc">  -3374.58551447 </i>
    <i name="eentropy">      0.00036546 </i>
    <i name="bandstr">    185.07122732 </i>
    <i name="atom">   3565.76896863 </i>
    <i name="e_fr_energy">    312.29989696 </i>
    <i name="e_wo_entrp">    312.29953150 </i>
    <i name="e_0_energy">    312.29980560 </i>
   </energy>
  </scstep>
  <scstep>
   <time name="dav">   44.24   44.29</time>
   <time name="total">   44.26   44.30</time>
   <energy>
    <i name="e_fr_energy">    -22.70701537 </i>
    <i name="e_wo_entrp">    -22.70656040 </i>
    <i name="e_0_energy">    -22.70690163 </i>
   </energy>
  </scstep>
  <scstep>
   <time name="dav">   63.62   63.71</time>
   <time name="total">   63.63   63.73</time>
   <energy>
    <i name="e_fr_energy">    -47.78405116 </i>
    <i name="e_wo_entrp">    -47.78243690 </i>
    <i name="e_0_energy">    -47.78364760 </i>
   </energy>
  </scstep>
  <scstep>
   <time name="dav">   57.42   57.49</time>
   <time name="total">   57.44   57.51</time>
   <energy>
    <i name="e_fr_energy">    -49.95207223 </i>
    <i name="e_wo_entrp">    -49.95488886 </i>
    <i name="e_0_energy">    -49.95277639 </i>
   </energy>
  </scstep>
  <scstep>
   <time name="dav">   60.37   60.44</time>
   <time name="total">   60.39   60.46</time>
   <energy>
    <i name="e_fr_energy">    -50.13473515 </i>
    <i name="e_wo_entrp">    -50.13920847 </i>
    <i name="e_0_energy">    -50.13585348 </i>
   </energy>
  </scstep>
  <scstep>
   <time name="dav">   59.78   59.85</time>
   <time name="total">   59.80   59.87</time>
   <energy>
    <i name="e_fr_energy">    -50.15397922 </i>
    <i name="e_wo_entrp">    -50.15836622 </i>
    <i name="e_0_energy">    -50.15507597 </i>
   </energy>
  </scstep>
  <scstep>
   <time name="dav">   61.80   61.87</time>
   <time name="total">   61.82   61.88</time>
   <energy>
    <i name="e_fr_energy">    -50.15548482 </i>
    <i name="e_wo_entrp">    -50.15983444 </i>
    <i name="e_0_energy">    -50.15657222 </i>
   </energy>
  </scstep>
  <scstep>
   <time name="dav">   50.31   50.36</time>
   <time name="total">   50.32   50.38</time>
   <energy>
    <i name="e_fr_energy">    -50.15567299 </i>
    <i name="e_wo_entrp">    -50.16000739 </i>
    <i name="e_0_energy">    -50.15675659 </i>
   </energy>
  </scstep>
  <scstep>
   <time name="dav">   43.71   43.76</time>
   <time name="total">   43.73   43.78</time>
   <energy>
    <i name="e_fr_energy">    -50.15570022 </i>
    <i name="e_wo_entrp">    -50.16002520 </i>
    <i name="e_0_energy">    -50.15678146 </i>
   </energy>
  </scstep>
  <scstep>
   <time name="dav">   39.15   39.19</time>
   <time name="total">   44.71   45.17</time>
   <energy>
    <i name="e_fr_energy">    -50.15570536 </i>
    <i name="e_wo_entrp">    -50.16002546 </i>
    <i name="e_0_energy">    -50.15678539 </i>
   </energy>
  </scstep>
  <scstep>
   <time name="diag">   11.29   11.31</time>
   <time name="diis">   50.20   50.25</time>
   <time name="orth">    0.48    0.48</time>
   <time name="total">   67.92   68.03</time>
   <energy>
    <i name="e_fr_energy">    -96.17412974 </i>
    <i name="e_wo_entrp">    -96.17782236 </i>
    <i name="e_0_energy">    -96.17505289 </i>
   </energy>
  </scstep>
  <scstep>
   <time name="diag">   11.22   11.24</time>
   <time name="diis">   35.76   35.81</time>
   <time name="orth">    0.47    0.47</time>
   <time name="total">   53.43   53.51</time>
   <energy>
    <i name="e_fr_energy">    -57.54740958 </i>
    <i name="e_wo_entrp">    -57.54978185 </i>
    <i name="e_0_energy">    -57.54800265 </i>
   </energy>
  </scstep>
  <scstep>
   <time name="diag">   11.20   11.21</time>
   <time name="diis">   37.10   37.14</time>
   <time name="orth">    0.47    0.48</time>
   <time name="total">   54.78   54.85</time>
   <energy>
    <i name="e_fr_energy">    -58.67186104 </i>
    <i name="e_wo_entrp">    -58.67579754 </i>
    <i name="e_0_energy">    -58.67284517 </i>
   </energy>
  </scstep>
  <scstep>
   <time name="diag">   11.30   11.32</time>
   <time name="diis">   38.39   38.43</time>
   <time name="orth">    0.48    0.48</time>
   <time name="total">   56.15   56.26</time>
   <energy>
    <i name="e_fr_energy">    -51.11866638 </i>
    <i name="e_wo_entrp">    -51.12301171 </i>
    <i name="e_0_energy">    -51.11975271 </i>
   </energy>
  </scstep>
  <scstep>
   <time name="diag">   11.34   11.35</time>
   <time name="diis">   35.76   35.81</time>
   <time name="orth">    0.48    0.48</time>
   <time name="total">   53.68   53.74</time>
   <energy>
    <i name="e_fr_energy">    -43.71299247 </i>
    <i name="e_wo_entrp">    -43.71685924 </i>
    <i name="e_0_energy">    -43.71395916 </i>
   </energy>
  </scstep>
  <scstep>
   <time name="diag">   11.12   11.13</time>
   <time name="diis">   39.64   39.69</time>
   <time name="orth">    0.49    0.49</time>
   <time name="total">   57.34   57.41</time>
   <energy>
    <i name="e_fr_energy">    -42.62920498 </i>
    <i name="e_wo_entrp">    -42.63050968 </i>
    <i name="e_0_energy">    -42.62953115 </i>
   </energy>
  </scstep>
  <scstep>
   <time name="diag">   11.14   11.16</time>
   <time name="diis">   47.29   47.34</time>
   <time name="orth">    0.47    0.47</time>
   <time name="total">   64.95   65.03</time>
   <energy>
    <i name="e_fr_energy">    -42.69192803 </i>
    <i name="e_wo_entrp">    -42.69287342 </i>
    <i name="e_0_energy">    -42.69216437 </i>
   </energy>
  </scstep>
  <scstep>
   <time name="diag">   11.28   11.29</time>
   <time name="diis">   48.80   48.85</time>
   <time name="orth">    0.48    0.48</time>
   <time name="total">   66.53   66.61</time>
   <energy>
    <i name="e_fr_energy">    -42.68279922 </i>
    <i name="e_wo_entrp">    -42.68311126 </i>
    <i name="e_0_energy">    -42.68287723 </i>
   </energy>
  </scstep>
  <scstep>
   <time name="diag">   11.13   11.14</time>
   <time name="diis">   38.82   38.87</time>
   <time name="orth">    0.48    0.48</time>
   <time name="total">   56.40   56.47</time>
   <energy>
    <i name="e_fr_energy">    -42.75911782 </i>
    <i name="e_wo_entrp">    -42.75875720 </i>
    <i name="e_0_energy">    -42.75902766 </i>
   </energy>
  </scstep>
  <scstep>
   <time name="diag">   11.13   11.14</time>
   <time name="diis">   36.01   36.05</time>
   <time name="orth">    0.48    0.48</time>
   <time name="total">   53.60   53.66</time>
   <energy>
    <i name="e_fr_energy">    -42.87382783 </i>
    <i name="e_wo_entrp">    -42.87254111 </i>
    <i name="e_0_energy">    -42.87350615 </i>
   </energy>
  </scstep>
  <scstep>
   <time name="diag">   11.30   11.31</time>
   <time name="diis">   37.25   37.30</time>
   <time name="orth">    0.48    0.48</time>
   <time name="total">   55.02   55.09</time>
   <energy>
    <i name="e_fr_energy">    -42.94784438 </i>
    <i name="e_wo_entrp">    -42.94741186 </i>
    <i name="e_0_energy">    -42.94773625 </i>
   </energy>
  </scstep>
  <scstep>
   <time name="diag">   11.28   11.30</time>
   <time name="diis">   37.30   37.35</time>
   <time name="orth">    0.48    0.48</time>
   <time name="total">   55.11   55.18</time>
   <energy>
    <i name="e_fr_energy">    -42.79279455 </i>
    <i name="e_wo_entrp">    -42.79207922 </i>
    <i name="e_0_energy">    -42.79261572 </i>
   </energy>
  </scstep>
  <scstep>
   <time name="diag">   11.20   11.21</time>
   <time name="diis">   40.69   40.74</time>
   <time name="orth">    0.48    0.48</time>
   <time name="total">   58.46   58.53</time>
   <energy>
    <i name="e_fr_energy">    -42.86618419 </i>
    <i name="e_wo_entrp">    -42.86650292 </i>
    <i name="e_0_energy">    -42.86626387 </i>
   </energy>
  </scstep>
  <scstep>
   <time name="diag">   11.18   11.19</time>
   <time name="diis">   36.61   36.66</time>
   <time name="orth">    0.47    0.47</time>
   <time name="total">   54.28   54.35</time>
   <energy>
    <i name="e_fr_energy">    -42.78296918 </i>
    <i name="e_wo_entrp">    -42.78146580 </i>
    <i name="e_0_energy">    -42.78259333 </i>
   </energy>
  </scstep>
  <scstep>
   <time name="diag">   11.25   11.27</time>
   <time name="diis">   40.02   40.07</time>
   <time name="orth">    0.48    0.47</time>
   <time name="total">   57.74   57.81</time>
   <energy>
    <i name="e_fr_energy">    -42.74329644 </i>
    <i name="e_wo_entrp">    -42.74218620 </i>
    <i name="e_0_energy">    -42.74301888 </i>
   </energy>
  </scstep>
  <scstep>
   <time name="diag">   11.28   11.29</time>
   <time name="diis">   36.69   36.73</time>
   <time name="orth">    0.48    0.48</time>
   <time name="total">   54.42   54.49</time>
   <energy>
    <i name="e_fr_energy">    -42.68049142 </i>
    <i name="e_wo_entrp">    -42.67962703 </i>
    <i name="e_0_energy">    -42.68027533 </i>
   </energy>
  </scstep>
  <scstep>
   <time name="diag">   11.25   11.27</time>
   <time name="diis">   37.77   37.82</time>
   <time name="orth">    0.48    0.48</time>
   <time name="total">   55.52   55.59</time>
   <energy>
    <i name="e_fr_energy">    -42.76115077 </i>
    <i name="e_wo_entrp">    -42.75906434 </i>
    <i name="e_0_energy">    -42.76062916 </i>
   </energy>
  </scstep>
  <scstep>
   <time name="diag">   11.21   11.22</time>
   <time name="diis">   38.62   38.66</time>
   <time name="orth">    0.48    0.48</time>
   <time name="total">   56.34   56.41</time>
   <energy>
    <i name="e_fr_energy">    -42.95015457 </i>
    <i name="e_wo_entrp">    -42.94847023 </i>
    <i name="e_0_energy">    -42.94973348 </i>
   </energy>
  </scstep>
  <scstep>
   <time name="diag">   11.20   11.21</time>
   <time name="diis">   44.73   44.79</time>
   <time name="orth">    0.48    0.48</time>
   <time name="total">   62.48   62.56</time>
   <energy>
    <i name="e_fr_energy">    -43.00884545 </i>
    <i name="e_wo_entrp">    -43.00701383 </i>
    <i name="e_0_energy">    -43.00838754 </i>
   </energy>
  </scstep>
  <scstep>
   <time name="diag">   11.18   11.19</time>
   <time name="diis">   37.47   37.52</time>
   <time name="orth">    0.48    0.48</time>
   <time name="total">   55.20   55.29</time>
   <energy>
    <i name="e_fr_energy">    -43.33604382 </i>
    <i name="e_wo_entrp">    -43.33796550 </i>
    <i name="e_0_energy">    -43.33652424 </i>
   </energy>
  </scstep>
  <scstep>
   <time name="diag">   11.24   11.25</time>
   <time name="diis">   44.40   44.46</time>
   <time name="orth">    0.48    0.48</time>
   <time name="total">   62.12   62.24</time>
   <energy>
    <i name="e_fr_energy">    -43.51506443 </i>
    <i name="e_wo_entrp">    -43.51636517 </i>
    <i name="e_0_energy">    -43.51538962 </i>
   </energy>
  </scstep>
  <scstep>
   <time name="diag">   11.25   11.26</time>
   <time name="diis">   37.65   37.70</time>
   <time name="orth">    0.48    0.48</time>
   <time name="total">   55.38   55.48</time>
   <energy>
    <i name="e_fr_energy">    -43.82650887 </i>
    <i name="e_wo_entrp">    -43.83020942 </i>
    <i name="e_0_energy">    -43.82743400 </i>
   </energy>
  </scstep>
  <scstep>
   <time name="diag">   11.20   11.22</time>
   <time name="diis">   38.08   38.12</time>
   <time name="orth">    0.48    0.49</time>
   <time name="total">   55.88   55.95</time>
   <energy>
    <i name="e_fr_energy">    -44.15795680 </i>
    <i name="e_wo_entrp">    -44.16078332 </i>
    <i name="e_0_energy">    -44.15866343 </i>
   </energy>
  </scstep>
  <scstep>
   <time name="diag">   11.16   11.17</time>
   <time name="diis">   43.13   43.19</time>
   <time name="orth">    0.47    0.47</time>
   <time name="total">   60.77   60.87</time>
   <energy>
    <i name="e_fr_energy">    -44.26845543 </i>
    <i name="e_wo_entrp">    -44.26992527 </i>
    <i name="e_0_energy">    -44.26882289 </i>
   </energy>
  </scstep>
  <scstep>
   <time name="diag">   11.36   11.37</time>
   <time name="diis">   39.24   39.29</time>
   <time name="orth">    0.48    0.47</time>
   <time name="total">   57.08   57.16</time>
   <energy>
    <i name="e_fr_energy">    -44.32814024 </i>
    <i name="e_wo_entrp">    -44.32820445 </i>
    <i name="e_0_energy">    -44.32815629 </i>
   </energy>
  </scstep>
  <scstep>
   <time name="diag">   11.30   11.31</time>
   <time name="diis">   42.70   42.75</time>
   <time name="orth">    0.48    0.48</time>
   <time name="total">   60.48   60.57</time>
   <energy>
    <i name="e_fr_energy">    -44.34896582 </i>
    <i name="e_wo_entrp">    -44.34846836 </i>
    <i name="e_0_energy">    -44.34884145 </i>
   </energy>
  </scstep>
  <scstep>
   <time name="diag">   11.24   11.25</time>
   <time name="diis">   41.12   41.16</time>
   <time name="orth">    0.48    0.48</time>
   <time name="total">   58.87   58.93</time>
   <energy>
    <i name="e_fr_energy">    -44.36115162 </i>
    <i name="e_wo_entrp">    -44.36138534 </i>
    <i name="e_0_energy">    -44.36121005 </i>
   </energy>
  </scstep>
  <scstep>
   <time name="diag">   11.30   11.31</time>
   <time name="diis">   42.67   42.72</time>
   <time name="orth">    0.48    0.48</time>
   <time name="total">   60.49   60.60</time>
   <energy>
    <i name="e_fr_energy">    -44.37066480 </i>
    <i name="e_wo_entrp">    -44.37136310 </i>
    <i name="e_0_energy">    -44.37083937 </i>
   </energy>
  </scstep>
  <scstep>
   <time name="diag">   11.17   11.19</time>
   <time name="diis">   44.40   44.45</time>
   <time name="orth">    0.48    0.49</time>
   <time name="total">   62.19   62.27</time>
   <energy>
    <i name="e_fr_energy">    -44.37916934 </i>
    <i name="e_wo_entrp">    -44.38028716 </i>
    <i name="e_0_energy">    -44.37944879 </i>
   </energy>
  </scstep>
  <scstep>
   <time name="diag">   11.16   11.17</time>
   <time name="diis">   42.81   42.86</time>
   <time name="orth">    0.48    0.48</time>
   <time name="total">   60.46   60.53</time>
   <energy>
    <i name="e_fr_energy">    -44.38321653 </i>
    <i name="e_wo_entrp">    -44.38458854 </i>
    <i name="e_0_energy">    -44.38355953 </i>
   </energy>
  </scstep>
  <scstep>
   <time name="diag">   11.29   11.30</time>
   <time name="diis">   38.88   38.93</time>
   <time name="orth">    0.47    0.47</time>
   <time name="total">   56.67   56.73</time>
   <energy>
    <i name="e_fr_energy">    -44.39148788 </i>
    <i name="e_wo_entrp">    -44.39366005 </i>
    <i name="e_0_energy">    -44.39203092 </i>
   </energy>
  </scstep>
  <scstep>
   <time name="diag">   11.30   11.32</time>
   <time name="diis">   43.75   43.80</time>
   <time name="orth">    0.47    0.47</time>
   <time name="total">   61.54   61.73</time>
   <energy>
    <i name="e_fr_energy">    -44.39629010 </i>
    <i name="e_wo_entrp">    -44.39880367 </i>
    <i name="e_0_energy">    -44.39691850 </i>
   </energy>
  </scstep>
  <scstep>
   <time name="diag">   11.17   11.18</time>
   <time name="diis">   42.26   42.32</time>
   <time name="orth">    0.48    0.48</time>
   <time name="total">   60.02   60.10</time>
   <energy>
    <i name="e_fr_energy">    -44.40089810 </i>
    <i name="e_wo_entrp">    -44.40388349 </i>
    <i name="e_0_energy">    -44.40164445 </i>
   </energy>
  </scstep>
  <scstep>
   <time name="diag">   11.18   11.20</time>
   <time name="diis">   45.48   45.54</time>
   <time name="orth">    0.48    0.48</time>
   <time name="total">   63.17   63.26</time>
   <energy>
    <i name="e_fr_energy">    -44.40222595 </i>
    <i name="e_wo_entrp">    -44.40517623 </i>
    <i name="e_0_energy">    -44.40296352 </i>
   </energy>
  </scstep>
  <scstep>
   <time name="diag">   11.31   11.32</time>
   <time name="diis">   41.84   41.89</time>
   <time name="orth">    0.48    0.48</time>
   <time name="total">   59.74   59.97</time>
   <energy>
    <i name="e_fr_energy">    -44.40406100 </i>
    <i name="e_wo_entrp">    -44.40700989 </i>
    <i name="e_0_energy">    -44.40479822 </i>
   </energy>
  </scstep>
  <scstep>
   <time name="diag">   11.25   11.26</time>
   <time name="diis">   41.46   41.51</time>
   <time name="orth">    0.48    0.48</time>
   <time name="total">   59.23   59.30</time>
   <energy>
    <i name="e_fr_energy">    -44.40501631 </i>
    <i name="e_wo_entrp">    -44.40796071 </i>
    <i name="e_0_energy">    -44.40575241 </i>
   </energy>
  </scstep>
  <scstep>
   <time name="diag">   11.19   11.21</time>
   <time name="diis">   34.97   35.01</time>
   <time name="orth">    0.48    0.48</time>
   <time name="total">   52.77   52.83</time>
   <energy>
    <i name="e_fr_energy">    -44.40569502 </i>
    <i name="e_wo_entrp">    -44.40856988 </i>
    <i name="e_0_energy">    -44.40641373 </i>
   </energy>
  </scstep>
  <scstep>
   <time name="diag">   11.26   11.27</time>
   <time name="diis">   33.96   34.01</time>
   <time name="orth">    0.48    0.48</time>
   <time name="total">   51.84   51.89</time>
   <energy>
    <i name="e_fr_energy">    -44.40607191 </i>
    <i name="e_wo_entrp">    -44.40888244 </i>
    <i name="e_0_energy">    -44.40677454 </i>
   </energy>
  </scstep>
  <scstep>
   <time name="diag">   11.32   11.33</time>
   <time name="diis">   33.80   33.84</time>
   <time name="orth">    0.48    0.48</time>
   <time name="total">   51.73   51.80</time>
   <energy>
    <i name="e_fr_energy">    -44.40646533 </i>
    <i name="e_wo_entrp">    -44.40920288 </i>
    <i name="e_0_energy">    -44.40714972 </i>
   </energy>
  </scstep>
  <scstep>
   <time name="diag">   11.28   11.29</time>
   <time name="diis">   29.01   29.05</time>
   <time name="orth">    0.48    0.48</time>
   <time name="total">   46.91   46.97</time>
   <energy>
    <i name="e_fr_energy">    -44.40655991 </i>
    <i name="e_wo_entrp">    -44.40927923 </i>
    <i name="e_0_energy">    -44.40723974 </i>
   </energy>
  </scstep>
  <scstep>
   <time name="diag">   11.32   11.33</time>
   <time name="diis">   25.61   25.64</time>
   <time name="orth">    0.48    0.49</time>
   <time name="total">   43.53   43.58</time>
   <energy>
    <i name="e_fr_energy">    -44.40655971 </i>
    <i name="e_wo_entrp">    -44.40928758 </i>
    <i name="e_0_energy">    -44.40724167 </i>
   </energy>
  </scstep>
  <scstep>
   <time name="diag">   11.27   11.28</time>
   <time name="diis">   25.92   25.95</time>
   <time name="orth">    0.48    0.48</time>
   <time name="total">   43.79   43.88</time>
   <energy>
    <i name="e_fr_energy">    -44.40652832 </i>
    <i name="e_wo_entrp">    -44.40925424 </i>
    <i name="e_0_energy">    -44.40720980 </i>
   </energy>
  </scstep>
  <scstep>
   <time name="diag">   11.32   11.33</time>
   <time name="diis">   24.27   24.31</time>
   <time name="orth">    0.48    0.48</time>
   <time name="total">   42.17   42.23</time>
   <energy>
    <i name="e_fr_energy">    -44.40649544 </i>
    <i name="e_wo_entrp">    -44.40923449 </i>
    <i name="e_0_energy">    -44.40718020 </i>
   </energy>
  </scstep>
  <scstep>
   <time name="diag">   11.25   11.26</time>
   <time name="diis">   24.86   24.89</time>
   <time name="orth">    1.02    1.02</time>
   <time name="total">   44.47   44.53</time>
   <energy>
    <i name="e_fr_energy">    -44.40644341 </i>
    <i name="e_wo_entrp">    -44.40918374 </i>
    <i name="e_0_energy">    -44.40712849 </i>
   </energy>
  </scstep>
  <scstep>
   <time name="diag">   11.32   11.34</time>
   <time name="diis">   24.52   24.55</time>
   <time name="orth">    0.48    0.48</time>
   <time name="total">   42.41   42.47</time>
   <energy>
    <i name="e_fr_energy">    -44.40641210 </i>
    <i name="e_wo_entrp">    -44.40915639 </i>
    <i name="e_0_energy">    -44.40709817 </i>
   </energy>
  </scstep>
  <scstep>
   <time name="diag">   11.26   11.27</time>
   <time name="diis">   24.09   24.13</time>
   <time name="orth">    0.48    0.48</time>
   <time name="total">   41.94   41.99</time>
   <energy>
    <i name="e_fr_energy">    -44.40636460 </i>
    <i name="e_wo_entrp">    -44.40913026 </i>
    <i name="e_0_energy">    -44.40705602 </i>
   </energy>
  </scstep>
  <scstep>
   <time name="diag">   11.30   11.32</time>
   <time name="diis">   24.51   24.54</time>
   <time name="orth">    0.48    0.49</time>
   <time name="total">   42.39   42.45</time>
   <energy>
    <i name="e_fr_energy">    -44.40631721 </i>
    <i name="e_wo_entrp">    -44.40908685 </i>
    <i name="e_0_energy">    -44.40700962 </i>
   </energy>
  </scstep>
  <scstep>
   <time name="diag">   11.22   11.24</time>
   <time name="diis">   23.25   23.28</time>
   <time name="orth">    0.48    0.48</time>
   <time name="total">   41.04   41.09</time>
   <energy>
    <i name="e_fr_energy">    -44.40628222 </i>
    <i name="e_wo_entrp">    -44.40905647 </i>
    <i name="e_0_energy">    -44.40697578 </i>
   </energy>
  </scstep>
  <scstep>
   <time name="diag">   11.32   11.33</time>
   <time name="diis">   22.94   22.97</time>
   <time name="orth">    0.48    0.48</time>
   <time name="total">   40.84   40.89</time>
   <energy>
    <i name="e_fr_energy">    -44.40623901 </i>
    <i name="e_wo_entrp">    -44.40901544 </i>
    <i name="e_0_energy">    -44.40693312 </i>
   </energy>
  </scstep>
  <scstep>
   <time name="diag">   11.29   11.31</time>
   <time name="diis">   22.30   22.33</time>
   <time name="orth">    0.48    0.48</time>
   <time name="total">   34.52   34.56</time>
   <energy>
    <i name="alphaZ">    100.43331480 </i>
    <i name="ewald">   8759.37681812 </i>
    <i name="hartreedc"> -12291.12501217 </i>
    <i name="XCdc">     23.80592648 </i>
    <i name="pawpsdc">   4082.13337240 </i>
    <i name="pawaedc">  -4135.04517448 </i>
    <i name="eentropy">      0.00278006 </i>
    <i name="bandstr">   -149.75719158 </i>
    <i name="atom">   3565.76896863 </i>
    <i name="e_fr_energy">    -44.40619774 </i>
    <i name="e_wo_entrp">    -44.40897780 </i>
    <i name="e_0_energy">    -44.40689275 </i>
   </energy>
  </scstep>
  <structure>
   <crystal>
    <varray name="basis" >
     <v>       3.98651217       0.00000000       0.00000000 </v>
     <v>       1.99325608       3.45242081       0.00000000 </v>
     <v>       0.00000000       0.00000000      18.00000000 </v>
    </varray>
    <i name="volume">    247.73611635 </i>
    <varray name="rec_basis" >
     <v>       0.25084584      -0.14482591       0.00000000 </v>
     <v>       0.00000000       0.28965183       0.00000000 </v>
     <v>       0.00000000       0.00000000       0.05555556 </v>
    </varray>
   </crystal>
   <varray name="positions" >
    <v>       0.00000000       0.00000000       0.00000000 </v>
    <v>       0.33344853       0.33347615       0.04522778 </v>
    <v>       0.66692468       0.66652385       0.09045000 </v>
    <v>       0.00039830       0.00000000       0.13567778 </v>
    <v>       0.33385997       0.33307667       0.18090556 </v>
    <v>       0.66732298       0.66652385       0.22612778 </v>
   </varray>
  </structure>
  <varray name="forces" >
   <v>      -0.00081150      -0.00773259       0.69408127 </v>
   <v>      -0.00965015      -0.00987058       0.38529562 </v>
   <v>       0.00021882       0.00534075      -0.30620431 </v>
   <v>       0.00254049      -0.00966877       0.30575940 </v>
   <v>       0.00730612       0.01319745      -0.38279567 </v>
   <v>       0.00039621       0.00873375      -0.69613631 </v>
  </varray>
  <varray name="stress" >
   <v>     -29.49918253      -0.08724270       0.16080758 </v>
   <v>      -0.08724274     -29.20636846       0.36344950 </v>
   <v>       0.16080759       0.36344964     -23.95865361 </v>
  </varray>
  <energy>
   <i name="e_fr_energy">    -44.40619774 </i>
   <i name="e_wo_entrp">    -44.40689275 </i>
   <i name="e_0_energy">      0.00278006 </i>
  </energy>
  <time name="totalsc"> 3290.77 3300.72</time>
 </calculation>
 <calculation>
  <scstep>
   <time name="dav">   44.60   44.70</time>
   <time name="total">   50.64   50.74</time>
   <energy>
    <i name="alphaZ">    100.43331480 </i>
    <i name="ewald">   8810.30025183 </i>
    <i name="hartreedc"> -12341.64765076 </i>
    <i name="XCdc">     23.89626910 </i>
    <i name="pawpsdc">   4082.14015459 </i>
    <i name="pawaedc">  -4135.05176482 </i>
    <i name="eentropy">      0.00247779 </i>
    <i name="bandstr">   -150.24154521 </i>
    <i name="atom">   3565.76896863 </i>
    <i name="e_fr_energy">    -44.39952404 </i>
    <i name="e_wo_entrp">    -44.40200183 </i>
    <i name="e_0_energy">    -44.40014349 </i>
   </energy>
  </scstep>
  <scstep>
   <time name="diag">   11.34   11.36</time>
   <time name="diis">   36.29   36.34</time>
   <time name="orth">    0.48    0.48</time>
   <time name="total">   54.13   54.20</time>
   <energy>
    <i name="e_fr_energy">    -44.46838662 </i>
    <i name="e_wo_entrp">    -44.47235314 </i>
    <i name="e_0_energy">    -44.46937825 </i>
   </energy>
  </scstep>
  <scstep>
   <time name="diag">   11.33   11.35</time>
   <time name="diis">   36.26   36.30</time>
   <time name="orth">    0.48    0.48</time>
   <time name="total">   54.11   54.18</time>
   <energy>
    <i name="e_fr_energy">    -44.45554456 </i>
    <i name="e_wo_entrp">    -44.45847000 </i>
    <i name="e_0_energy">    -44.45627592 </i>
   </energy>
  </scstep>
  <scstep>
   <time name="diag">   11.30   11.31</time>
   <time name="diis">   36.52   36.56</time>
   <time name="orth">    0.48    0.49</time>
   <time name="total">   54.37   54.44</time>
   <energy>
    <i name="e_fr_energy">    -44.44828404 </i>
    <i name="e_wo_entrp">    -44.45026026 </i>
    <i name="e_0_energy">    -44.44877809 </i>
   </energy>
  </scstep>
  <scstep>
   <time name="diag">   11.30   11.31</time>
   <time name="diis">   36.36   36.41</time>
   <time name="orth">    0.48    0.48</time>
   <time name="total">   54.20   54.26</time>
   <energy>
    <i name="e_fr_energy">    -44.43685393 </i>
    <i name="e_wo_entrp">    -44.44006402 </i>
    <i name="e_0_energy">    -44.43765645 </i>
   </energy>
  </scstep>
  <scstep>
   <time name="diag">   11.32   11.33</time>
   <time name="diis">   44.14   44.20</time>
   <time name="orth">    0.48    0.49</time>
   <time name="total">   62.00   62.07</time>
   <energy>
    <i name="e_fr_energy">    -44.43771761 </i>
    <i name="e_wo_entrp">    -44.44116751 </i>
    <i name="e_0_energy">    -44.43858009 </i>
   </energy>
  </scstep>
  <scstep>
   <time name="diag">   11.32   11.33</time>
   <time name="diis">   36.78   36.82</time>
   <time name="orth">    0.48    0.49</time>
   <time name="total">   54.63   54.69</time>
   <energy>
    <i name="e_fr_energy">    -44.43697992 </i>
    <i name="e_wo_entrp">    -44.44019556 </i>
    <i name="e_0_energy">    -44.43778383 </i>
   </energy>
  </scstep>
  <scstep>
   <time name="diag">   11.32   11.33</time>
   <time name="diis">   38.93   38.98</time>
   <time name="orth">    0.48    0.48</time>
   <time name="total">   56.79   56.86</time>
   <energy>
    <i name="e_fr_energy">    -44.43709282 </i>
    <i name="e_wo_entrp">    -44.44008153 </i>
    <i name="e_0_energy">    -44.43784000 </i>
   </energy>
  </scstep>
  <scstep>
   <time name="diag">   11.29   11.31</time>
   <time name="diis">   39.54   39.59</time>
   <time name="orth">    0.48    0.48</time>
   <time name="total">   57.37   57.44</time>
   <energy>
    <i name="e_fr_energy">    -44.43727069 </i>
    <i name="e_wo_entrp">    -44.44034031 </i>
    <i name="e_0_energy">    -44.43803809 </i>
   </energy>
  </scstep>
  <scstep>
   <time name="diag">   11.30   11.33</time>
   <time name="diis">   40.41   40.48</time>
   <time name="orth">    0.48    0.49</time>
   <time name="total">   58.28   58.40</time>
   <energy>
    <i name="e_fr_energy">    -44.43766297 </i>
    <i name="e_wo_entrp">    -44.44081913 </i>
    <i name="e_0_energy">    -44.43845201 </i>
   </energy>
  </scstep>
  <scstep>
   <time name="diag">   11.31   11.32</time>
   <time name="diis">   45.46   45.52</time>
   <time name="orth">    0.48    0.49</time>
   <time name="total">   63.31   63.39</time>
   <energy>
    <i name="e_fr_energy">    -44.43809151 </i>
    <i name="e_wo_entrp">    -44.44128346 </i>
    <i name="e_0_energy">    -44.43888950 </i>
   </energy>
  </scstep>
  <scstep>
   <time name="diag">   11.32   11.33</time>
   <time name="diis">   36.26   36.31</time>
   <time name="orth">    0.48    0.49</time>
   <time name="total">   54.10   54.18</time>
   <energy>
    <i name="e_fr_energy">    -44.43838443 </i>
    <i name="e_wo_entrp">    -44.44154229 </i>
    <i name="e_0_energy">    -44.43917389 </i>
   </energy>
  </scstep>
  <scstep>
   <time name="diag">   11.26   11.28</time>
   <time name="diis">   33.21   33.26</time>
   <time name="orth">    0.48    0.48</time>
   <time name="total">   50.98   51.05</time>
   <energy>
    <i name="e_fr_energy">    -44.43869548 </i>
    <i name="e_wo_entrp">    -44.44184481 </i>
    <i name="e_0_energy">    -44.43948281 </i>
   </energy>
  </scstep>
  <scstep>
   <time name="diag">   11.29   11.30</time>
   <time name="diis">   34.26   34.30</time>
   <time name="orth">    0.48    0.48</time>
   <time name="total">   52.05   52.12</time>
   <energy>
    <i name="e_fr_energy">    -44.43937921 </i>
    <i name="e_wo_entrp">    -44.44251283 </i>
    <i name="e_0_energy">    -44.44016262 </i>
   </energy>
  </scstep>
  <scstep>
   <time name="diag">   11.28   11.30</time>
   <time name="diis">   32.72   32.77</time>
   <time name="orth">    0.48    0.48</time>
   <time name="total">   50.49   50.56</time>
   <energy>
    <i name="e_fr_energy">    -44.43988495 </i>
    <i name="e_wo_entrp">    -44.44301602 </i>
    <i name="e_0_energy">    -44.44066771 </i>
   </energy>
  </scstep>
  <scstep>
   <time name="diag">   11.25   11.26</time>
   <time name="diis">   27.92   27.96</time>
   <time name="orth">    0.48    0.48</time>
   <time name="total">   45.68   45.74</time>
   <energy>
    <i name="e_fr_energy">    -44.44036470 </i>
    <i name="e_wo_entrp">    -44.44349768 </i>
    <i name="e_0_energy">    -44.44114795 </i>
   </energy>
  </scstep>
  <scstep>
   <time name="diag">   11.27   11.28</time>
   <time name="diis">   28.70   28.74</time>
   <time name="orth">    0.48    0.48</time>
   <time name="total">   46.45   46.51</time>
   <energy>
    <i name="e_fr_energy">    -44.44067992 </i>
    <i name="e_wo_entrp">    -44.44381646 </i>
    <i name="e_0_energy">    -44.44146406 </i>
   </energy>
  </scstep>
  <scstep>
   <time name="diag">   11.28   11.29</time>
   <time name="diis">   28.84   28.88</time>
   <time name="orth">    0.48    0.48</time>
   <time name="total">   46.62   46.70</time>
   <energy>
    <i name="e_fr_energy">    -44.44110249 </i>
    <i name="e_wo_entrp">    -44.44423611 </i>
    <i name="e_0_energy">    -44.44188589 </i>
   </energy>
  </scstep>
  <scstep>
   <time name="diag">   11.26   11.28</time>
   <time name="diis">   29.86   29.90</time>
   <time name="orth">    0.48    0.48</time>
   <time name="total">   47.68   47.74</time>
   <energy>
    <i name="e_fr_energy">    -44.44150655 </i>
    <i name="e_wo_entrp">    -44.44463989 </i>
    <i name="e_0_energy">    -44.44228989 </i>
   </energy>
  </scstep>
  <scstep>
   <time name="diag">   11.28   11.30</time>
   <time name="diis">   29.65   29.69</time>
   <time name="orth">    0.48    0.48</time>
   <time name="total">   47.43   47.49</time>
   <energy>
    <i name="e_fr_energy">    -44.44173486 </i>
    <i name="e_wo_entrp">    -44.44486999 </i>
    <i name="e_0_energy">    -44.44251864 </i>
   </energy>
  </scstep>
  <scstep>
   <time name="diag">   11.31   11.32</time>
   <time name="diis">   27.50   27.54</time>
   <time name="orth">    0.48    0.48</time>
   <time name="total">   45.30   45.36</time>
   <energy>
    <i name="e_fr_energy">    -44.44181807 </i>
    <i name="e_wo_entrp">    -44.44495219 </i>
    <i name="e_0_energy">    -44.44260160 </i>
   </energy>
  </scstep>
  <scstep>
   <time name="diag">   11.32   11.33</time>
   <time name="diis">   25.20   25.23</time>
   <time name="orth">    0.48    0.48</time>
   <time name="total">   37.45   37.49</time>
   <energy>
    <i name="alphaZ">    100.43331480 </i>
    <i name="ewald">   8810.30025183 </i>
    <i name="hartreedc"> -12341.00555661 </i>
    <i name="XCdc">     23.87200225 </i>
    <i name="pawpsdc">   4092.88477587 </i>
    <i name="pawaedc">  -4145.90589609 </i>
    <i name="eentropy">      0.00313408 </i>
    <i name="bandstr">   -150.79281645 </i>
    <i name="atom">   3565.76896863 </i>
    <i name="e_fr_energy">    -44.44182170 </i>
    <i name="e_wo_entrp">    -44.44495577 </i>
    <i name="e_0_energy">    -44.44260522 </i>
   </energy>
  </scstep>
  <structure>
   <crystal>
    <varray name="basis" >
     <v>       3.98651217       0.00000000       0.00000000 </v>
     <v>       1.99325608       3.45242081       0.00000000 </v>
     <v>       0.00000000       0.00000000      18.00000000 </v>
    </varray>
    <i name="volume">    247.73611635 </i>
    <varray name="rec_basis" >
     <v>       0.25084584      -0.14482591       0.00000000 </v>
     <v>       0.00000000       0.28965183       0.00000000 </v>
     <v>       0.00000000       0.00000000       0.05555556 </v>
    </varray>
   </crystal>
   <varray name="positions" >
    <v>       0.00000000       0.00000000       0.00000000 </v>
    <v>       0.33344853       0.33347615       0.04522778 </v>
    <v>       0.66689002       0.66659848       0.08962933 </v>
    <v>       0.00049660      -0.00013511       0.13649726 </v>
    <v>       0.33385617       0.33326108       0.17987961 </v>
    <v>       0.66726676       0.66664589       0.22426203 </v>
   </varray>
  </structure>
  <varray name="forces" >
   <v>      -0.00090839      -0.00724404       0.69706280 </v>
   <v>      -0.00926451      -0.01192686       0.33208829 </v>
   <v>       0.00098315       0.00264004      -0.29297815 </v>
   <v>       0.00231912      -0.00179204       0.17342527 </v>
   <v>       0.00447208       0.00953802      -0.30558564 </v>
   <v>       0.00239854       0.00878487      -0.60401258 </v>
  </varray>
  <varray name="stress" >
   <v>     -27.35748490      -0.06796834       0.15473078 </v>
   <v>      -0.06796828     -27.08436361       0.36704479 </v>
   <v>       0.15473068       0.36704463     -21.80505061 </v>
  </varray>
  <energy>
   <i name="e_fr_energy">    -44.44182170 </i>
   <i name="e_wo_entrp">    -44.44260522 </i>
   <i name="e_0_energy">      0.00313408 </i>
  </energy>
  <time name="totalsc"> 1178.78 1182.08</time>
 </calculation>
 <calculation>
  <scstep>
   <time name="dav">   44.28   44.42</time>
   <time name="total">   50.30   50.46</time>
   <energy>
    <i name="alphaZ">    100.43331480 </i>
    <i name="ewald">   8960.80928597 </i>
    <i name="hartreedc"> -12490.30301944 </i>
    <i name="XCdc">     24.24941673 </i>
    <i name="pawpsdc">   4092.88546495 </i>
    <i name="pawaedc">  -4145.90676609 </i>
    <i name="eentropy">     -0.00102564 </i>
    <i name="bandstr">   -152.03376495 </i>
    <i name="atom">   3565.76896863 </i>
    <i name="e_fr_energy">    -44.09812504 </i>
    <i name="e_wo_entrp">    -44.09709940 </i>
    <i name="e_0_energy">    -44.09786863 </i>
   </energy>
  </scstep>
  <scstep>
   <time name="diag">   11.22   11.23</time>
   <time name="diis">   36.09   36.14</time>
   <time name="orth">    0.48    0.48</time>
   <time name="total">   53.77   53.84</time>
   <energy>
    <i name="e_fr_energy">    -44.87483149 </i>
    <i name="e_wo_entrp">    -44.87682828 </i>
    <i name="e_0_energy">    -44.87533069 </i>
   </energy>
  </scstep>
  <scstep>
   <time name="diag">   11.26   11.27</time>
   <time name="diis">   36.07   36.12</time>
   <time name="orth">    0.48    0.48</time>
   <time name="total">   53.82   53.89</time>
   <energy>
    <i name="e_fr_energy">    -44.49432136 </i>
    <i name="e_wo_entrp">    -44.49500835 </i>
    <i name="e_0_energy">    -44.49449310 </i>
   </energy>
  </scstep>
  <scstep>
   <time name="diag">   11.22   11.24</time>
   <time name="diis">   36.38   36.43</time>
   <time name="orth">    0.48    0.48</time>
   <time name="total">   54.11   54.18</time>
   <energy>
    <i name="e_fr_energy">    -44.53995573 </i>
    <i name="e_wo_entrp">    -44.53839469 </i>
    <i name="e_0_energy">    -44.53956547 </i>
   </energy>
  </scstep>
  <scstep>
   <time name="diag">   11.22   11.24</time>
   <time name="diis">   36.18   36.23</time>
   <time name="orth">    0.48    0.48</time>
   <time name="total">   53.91   53.98</time>
   <energy>
    <i name="e_fr_energy">    -44.44814227 </i>
    <i name="e_wo_entrp">    -44.44802637 </i>
    <i name="e_0_energy">    -44.44811329 </i>
   </energy>
  </scstep>
  <scstep>
   <time name="diag">   11.23   11.24</time>
   <time name="diis">   41.10   41.15</time>
   <time name="orth">    0.48    0.48</time>
   <time name="total">   58.83   58.91</time>
   <energy>
    <i name="e_fr_energy">    -44.46472048 </i>
    <i name="e_wo_entrp">    -44.46462276 </i>
    <i name="e_0_energy">    -44.46469605 </i>
   </energy>
  </scstep>
  <scstep>
   <time name="diag">   11.21   11.22</time>
   <time name="diis">   36.83   36.88</time>
   <time name="orth">    0.48    0.48</time>
   <time name="total">   54.54   54.61</time>
   <energy>
    <i name="e_fr_energy">    -44.46270087 </i>
    <i name="e_wo_entrp">    -44.46244609 </i>
    <i name="e_0_energy">    -44.46263717 </i>
   </energy>
  </scstep>
  <scstep>
   <time name="diag">   11.24   11.25</time>
   <time name="diis">   40.24   40.29</time>
   <time name="orth">    0.48    0.48</time>
   <time name="total">   57.98   58.05</time>
   <energy>
    <i name="e_fr_energy">    -44.46487519 </i>
    <i name="e_wo_entrp">    -44.46465022 </i>
    <i name="e_0_energy">    -44.46481895 </i>
   </energy>
  </scstep>
  <scstep>
   <time name="diag">   11.22   11.24</time>
   <time name="diis">   36.91   36.96</time>
   <time name="orth">    0.48    0.48</time>
   <time name="total">   54.64   54.71</time>
   <energy>
    <i name="e_fr_energy">    -44.47029802 </i>
    <i name="e_wo_entrp">    -44.47004467 </i>
    <i name="e_0_energy">    -44.47023468 </i>
   </energy>
  </scstep>
  <scstep>
   <time name="diag">   11.24   11.25</time>
   <time name="diis">   38.62   38.67</time>
   <time name="orth">    0.48    0.48</time>
   <time name="total">   56.37   56.44</time>
   <energy>
    <i name="e_fr_energy">    -44.46913115 </i>
    <i name="e_wo_entrp">    -44.46887097 </i>
    <i name="e_0_energy">    -44.46906611 </i>
   </energy>
  </scstep>
  <scstep>
   <time name="diag">   11.24   11.25</time>
   <time name="diis">   42.18   42.23</time>
   <time name="orth">    0.48    0.48</time>
   <time name="total">   59.92   60.00</time>
   <energy>
    <i name="e_fr_energy">    -44.47290753 </i>
    <i name="e_wo_entrp">    -44.47257767 </i>
    <i name="e_0_energy">    -44.47282507 </i>
   </energy>
  </scstep>
  <scstep>
   <time name="diag">   11.22   11.23</time>
   <time name="diis">   39.06   39.11</time>
   <time name="orth">    0.48    0.48</time>
   <time name="total">   56.80   56.88</time>
   <energy>
    <i name="e_fr_energy">    -44.47521565 </i>
    <i name="e_wo_entrp">    -44.47489079 </i>
    <i name="e_0_energy">    -44.47513443 </i>
   </energy>
  </scstep>
  <scstep>
   <time name="diag">   11.23   11.24</time>
   <time name="diis">   43.52   43.58</time>
   <time name="orth">    0.48    0.48</time>
   <time name="total">   61.24   61.31</time>
   <energy>
    <i name="e_fr_energy">    -44.47709323 </i>
    <i name="e_wo_entrp">    -44.47672352 </i>
    <i name="e_0_energy">    -44.47700080 </i>
   </energy>
  </scstep>
  <scstep>
   <time name="diag">   11.28   11.30</time>
   <time name="diis">   33.13   33.17</time>
   <time name="orth">    0.48    0.48</time>
   <time name="total">   50.91   50.98</time>
   <energy>
    <i name="e_fr_energy">    -44.47735527 </i>
    <i name="e_wo_entrp">    -44.47699378 </i>
    <i name="e_0_energy">    -44.47726490 </i>
   </energy>
  </scstep>
  <scstep>
   <time name="diag">   11.26   11.27</time>
   <time name="diis">   40.76   40.81</time>
   <time name="orth">    0.48    0.48</time>
   <time name="total">   58.52   58.59</time>
   <energy>
    <i name="e_fr_energy">    -44.48176481 </i>
    <i name="e_wo_entrp">    -44.48137260 </i>
    <i name="e_0_energy">    -44.48166676 </i>
   </energy>
  </scstep>
  <scstep>
   <time name="diag">   11.25   11.27</time>
   <time name="diis">   40.41   40.46</time>
   <time name="orth">    0.48    0.48</time>
   <time name="total">   58.16   58.24</time>
   <energy>
    <i name="e_fr_energy">    -44.49226099 </i>
    <i name="e_wo_entrp">    -44.49180663 </i>
    <i name="e_0_energy">    -44.49214740 </i>
   </energy>
  </scstep>
  <scstep>
   <time name="diag">   11.28   11.29</time>
   <time name="diis">   42.80   42.85</time>
   <time name="orth">    0.48    0.48</time>
   <time name="total">   60.57   60.65</time>
   <energy>
    <i name="e_fr_energy">    -44.49748237 </i>
    <i name="e_wo_entrp">    -44.49700814 </i>
    <i name="e_0_energy">    -44.49736381 </i>
   </energy>
  </scstep>
  <scstep>
   <time name="diag">   11.28   11.29</time>
   <time name="diis">   37.15   37.19</time>
   <time name="orth">    0.48    0.48</time>
   <time name="total">   54.91   54.98</time>
   <energy>
    <i name="e_fr_energy">    -44.50393032 </i>
    <i name="e_wo_entrp">    -44.50343254 </i>
    <i name="e_0_energy">    -44.50380587 </i>
   </energy>
  </scstep>
  <scstep>
   <time name="diag">   11.19   11.20</time>
   <time name="diis">   40.22   40.27</time>
   <time name="orth">    0.48    0.48</time>
   <time name="total">   57.93   58.00</time>
   <energy>
    <i name="e_fr_energy">    -44.50791142 </i>
    <i name="e_wo_entrp">    -44.50739201 </i>
    <i name="e_0_energy">    -44.50778157 </i>
   </energy>
  </scstep>
  <scstep>
   <time name="diag">   11.23   11.25</time>
   <time name="diis">   37.64   37.69</time>
   <time name="orth">    0.48    0.48</time>
   <time name="total">   55.38   55.46</time>
   <energy>
    <i name="e_fr_energy">    -44.50972902 </i>
    <i name="e_wo_entrp">    -44.50918537 </i>
    <i name="e_0_energy">    -44.50959311 </i>
   </energy>
  </scstep>
  <scstep>
   <time name="diag">   11.25   11.26</time>
   <time name="diis">   35.94   35.99</time>
   <time name="orth">    0.48    0.48</time>
   <time name="total">   53.70   53.77</time>
   <energy>
    <i name="e_fr_energy">    -44.51053301 </i>
    <i name="e_wo_entrp">    -44.50997062 </i>
    <i name="e_0_energy">    -44.51039241 </i>
   </energy>
  </scstep>
  <scstep>
   <time name="diag">   11.24   11.25</time>
   <time name="diis">   32.84   32.88</time>
   <time name="orth">    0.48    0.48</time>
   <time name="total">   50.60   50.67</time>
   <energy>
    <i name="e_fr_energy">    -44.51075735 </i>
    <i name="e_wo_entrp">    -44.51018215 </i>
    <i name="e_0_energy">    -44.51061355 </i>
   </energy>
  </scstep>
  <scstep>
   <time name="diag">   11.24   11.25</time>
   <time name="diis">   27.33   27.37</time>
   <time name="orth">    0.48    0.48</time>
   <time name="total">   45.08   45.15</time>
   <energy>
    <i name="e_fr_energy">    -44.51091417 </i>
    <i name="e_wo_entrp">    -44.51033424 </i>
    <i name="e_0_energy">    -44.51076919 </i>
   </energy>
  </scstep>
  <scstep>
   <time name="diag">   11.32   11.34</time>
   <time name="diis">   24.54   24.58</time>
   <time name="orth">    0.48    0.48</time>
   <time name="total">   42.40   42.47</time>
   <energy>
    <i name="e_fr_energy">    -44.51094385 </i>
    <i name="e_wo_entrp">    -44.51036000 </i>
    <i name="e_0_energy">    -44.51079789 </i>
   </energy>
  </scstep>
  <scstep>
   <time name="diag">   11.23   11.25</time>
   <time name="diis">   24.25   24.28</time>
   <time name="orth">    0.48    0.48</time>
   <time name="total">   42.01   42.06</time>
   <energy>
    <i name="e_fr_energy">    -44.51098770 </i>
    <i name="e_wo_entrp">    -44.51039992 </i>
    <i name="e_0_energy">    -44.51084076 </i>
   </energy>
  </scstep>
  <scstep>
   <time name="diag">   11.30   11.32</time>
   <time name="diis">   23.95   23.98</time>
   <time name="orth">    0.48    0.48</time>
   <time name="total">   41.82   41.87</time>
   <energy>
    <i name="e_fr_energy">    -44.51102325 </i>
    <i name="e_wo_entrp">    -44.51043302 </i>
    <i name="e_0_energy">    -44.51087569 </i>
   </energy>
  </scstep>
  <scstep>
   <time name="diag">   11.26   11.27</time>
   <time name="diis">   23.88   23.91</time>
   <time name="orth">    0.48    0.48</time>
   <time name="total">   41.71   41.77</time>
   <energy>
    <i name="e_fr_energy">    -44.51104270 </i>
    <i name="e_wo_entrp">    -44.51044871 </i>
    <i name="e_0_energy">    -44.51089420 </i>
   </energy>
  </scstep>
  <scstep>
   <time name="diag">   11.33   11.35</time>
   <time name="diis">   22.84   22.87</time>
   <time name="orth">    0.48    0.48</time>
   <time name="total">   40.74   40.80</time>
   <energy>
    <i name="e_fr_energy">    -44.51106682 </i>
    <i name="e_wo_entrp">    -44.51047017 </i>
    <i name="e_0_energy">    -44.51091765 </i>
   </energy>
  </scstep>
  <scstep>
   <time name="diag">   11.29   11.30</time>
   <time name="diis">   22.37   22.40</time>
   <time name="orth">    0.48    0.48</time>
   <time name="total">   40.19   40.24</time>
   <energy>
    <i name="e_fr_energy">    -44.51108615 </i>
    <i name="e_wo_entrp">    -44.51048678 </i>
    <i name="e_0_energy">    -44.51093631 </i>
   </energy>
  </scstep>
  <scstep>
   <time name="diag">   11.30   11.32</time>
   <time name="diis">   23.00   23.03</time>
   <time name="orth">    0.48    0.48</time>
   <time name="total">   40.88   40.93</time>
   <energy>
    <i name="e_fr_energy">    -44.51110306 </i>
    <i name="e_wo_entrp">    -44.51049982 </i>
    <i name="e_0_energy">    -44.51095225 </i>
   </energy>
  </scstep>
  <scstep>
   <time name="diag">   11.31   11.32</time>
   <time name="diis">   22.32   22.36</time>
   <time name="orth">    0.48    0.48</time>
   <time name="total">   40.23   40.28</time>
   <energy>
    <i name="e_fr_energy">    -44.51111517 </i>
    <i name="e_wo_entrp">    -44.51050933 </i>
    <i name="e_0_energy">    -44.51096371 </i>
   </energy>
  </scstep>
  <scstep>
   <time name="diag">   11.30   11.31</time>
   <time name="diis">   21.76   21.79</time>
   <time name="orth">    0.48    0.48</time>
   <time name="total">   39.62   39.68</time>
   <energy>
    <i name="e_fr_energy">    -44.51113113 </i>
    <i name="e_wo_entrp">    -44.51052311 </i>
    <i name="e_0_energy">    -44.51097913 </i>
   </energy>
  </scstep>
  <scstep>
   <time name="diag">   11.33   11.34</time>
   <time name="diis">   23.47   23.50</time>
   <time name="orth">    0.48    0.48</time>
   <time name="total">   41.35   41.40</time>
   <energy>
    <i name="e_fr_energy">    -44.51111746 </i>
    <i name="e_wo_entrp">    -44.51050750 </i>
    <i name="e_0_energy">    -44.51096497 </i>
   </energy>
  </scstep>
  <scstep>
   <time name="diag">   11.31   11.33</time>
   <time name="diis">   22.90   22.93</time>
   <time name="orth">    0.48    0.48</time>
   <time name="total">   40.80   40.86</time>
   <energy>
    <i name="e_fr_energy">    -44.51115536 </i>
    <i name="e_wo_entrp">    -44.51054377 </i>
    <i name="e_0_energy">    -44.51100246 </i>
   </energy>
  </scstep>
  <scstep>
   <time name="diag">   11.29   11.30</time>
   <time name="diis">   21.41   21.44</time>
   <time name="orth">    0.48    0.48</time>
   <time name="total">   39.26   39.32</time>
   <energy>
    <i name="e_fr_energy">    -44.51118093 </i>
    <i name="e_wo_entrp">    -44.51056841 </i>
    <i name="e_0_energy">    -44.51102780 </i>
   </energy>
  </scstep>
  <scstep>
   <time name="diag">   11.28   11.30</time>
   <time name="diis">   20.65   20.68</time>
   <time name="orth">    0.48    0.48</time>
   <time name="total">   32.86   32.90</time>
   <energy>
    <i name="alphaZ">    100.43331480 </i>
    <i name="ewald">   8960.80928597 </i>
    <i name="hartreedc"> -12487.45179878 </i>
    <i name="XCdc">     24.02998695 </i>
    <i name="pawpsdc">   4127.14774079 </i>
    <i name="pawaedc">  -4180.49235657 </i>
    <i name="eentropy">     -0.00061442 </i>
    <i name="bandstr">   -154.75570972 </i>
    <i name="atom">   3565.76896863 </i>
    <i name="e_fr_energy">    -44.51118235 </i>
    <i name="e_wo_entrp">    -44.51056793 </i>
    <i name="e_0_energy">    -44.51102874 </i>
   </energy>
  </scstep>
  <structure>
   <crystal>
    <varray name="basis" >
     <v>       3.98651217       0.00000000       0.00000000 </v>
     <v>       1.99325608       3.45242081       0.00000000 </v>
     <v>       0.00000000       0.00000000      18.00000000 </v>
    </varray>
    <i name="volume">    247.73611635 </i>
    <varray name="rec_basis" >
     <v>       0.25084584      -0.14482591       0.00000000 </v>
     <v>       0.00000000       0.28965183       0.00000000 </v>
     <v>       0.00000000       0.00000000       0.05555556 </v>
    </varray>
   </crystal>
   <varray name="positions" >
    <v>       0.00000000       0.00000000       0.00000000 </v>
    <v>       0.33344853       0.33347615       0.04522778 </v>
    <v>       0.66678602       0.66682237       0.08716731 </v>
    <v>       0.00079149      -0.00054043       0.13895570 </v>
    <v>       0.33384480       0.33381433       0.17680176 </v>
    <v>       0.66709808       0.66701202       0.21866479 </v>
   </varray>
  </structure>
  <varray name="forces" >
   <v>      -0.00121552      -0.00582522       0.70782371 </v>
   <v>      -0.00774702      -0.01256341       0.15061298 </v>
   <v>       0.00502105       0.00113574      -0.39439873 </v>
   <v>       0.00072127       0.01530794      -0.16837065 </v>
   <v>      -0.00391707      -0.00633510      -0.03152965 </v>
   <v>       0.00713729       0.00828005      -0.26413766 </v>
  </varray>
  <varray name="stress" >
   <v>     -24.63303455      -0.00607838       0.12563362 </v>
   <v>      -0.00607810     -24.41054690       0.26881349 </v>
   <v>       0.12563356       0.26881336     -18.75619278 </v>
  </varray>
  <energy>
   <i name="e_fr_energy">    -44.51118235 </i>
   <i name="e_wo_entrp">    -44.51102874 </i>
   <i name="e_0_energy">     -0.00061442 </i>
  </energy>
  <time name="totalsc"> 1830.58 1833.94</time>
 </calculation>
 <calculation>
  <scstep>
   <time name="dav">   44.27   44.42</time>
   <time name="total">   50.42   50.60</time>
   <energy>
    <i name="alphaZ">    100.43331480 </i>
    <i name="ewald">   9249.88421201 </i>
    <i name="hartreedc"> -12773.94843421 </i>
    <i name="XCdc">     26.04940079 </i>
    <i name="pawpsdc">   4127.12686913 </i>
    <i name="pawaedc">  -4180.47160462 </i>
    <i name="eentropy">      0.00124941 </i>
    <i name="bandstr">   -156.07771418 </i>
    <i name="atom">   3565.76896863 </i>
    <i name="e_fr_energy">    -41.23373823 </i>
    <i name="e_wo_entrp">    -41.23498764 </i>
    <i name="e_0_energy">    -41.23405058 </i>
   </energy>
  </scstep>
  <scstep>
   <time name="diag">   11.26   11.27</time>
   <time name="diis">   36.48   36.53</time>
   <time name="orth">    0.48    0.48</time>
   <time name="total">   54.27   54.34</time>
   <energy>
    <i name="e_fr_energy">    -49.88392025 </i>
    <i name="e_wo_entrp">    -49.88198863 </i>
    <i name="e_0_energy">    -49.88343734 </i>
   </energy>
  </scstep>
  <scstep>
   <time name="diag">   11.27   11.29</time>
   <time name="diis">   36.00   36.05</time>
   <time name="orth">    0.48    0.48</time>
   <time name="total">   53.81   53.88</time>
   <energy>
    <i name="e_fr_energy">    -43.78670725 </i>
    <i name="e_wo_entrp">    -43.78607024 </i>
    <i name="e_0_energy">    -43.78654800 </i>
   </energy>
  </scstep>
  <scstep>
   <time name="diag">   11.28   11.30</time>
   <time name="diis">   36.30   36.34</time>
   <time name="orth">    0.48    0.48</time>
   <time name="total">   54.13   54.20</time>
   <energy>
    <i name="e_fr_energy">    -44.67006780 </i>
    <i name="e_wo_entrp">    -44.66822626 </i>
    <i name="e_0_energy">    -44.66960741 </i>
   </energy>
  </scstep>
  <scstep>
   <time name="diag">   11.29   11.30</time>
   <time name="diis">   36.03   36.08</time>
   <time name="orth">    0.48    0.48</time>
   <time name="total">   53.86   53.94</time>
   <energy>
    <i name="e_fr_energy">    -44.15412915 </i>
    <i name="e_wo_entrp">    -44.15153138 </i>
    <i name="e_0_energy">    -44.15347971 </i>
   </energy>
  </scstep>
  <scstep>
   <time name="diag">   11.29   11.30</time>
   <time name="diis">   37.37   37.42</time>
   <time name="orth">    0.48    0.48</time>
   <time name="total">   55.19   55.27</time>
   <energy>
    <i name="e_fr_energy">    -44.17392681 </i>
    <i name="e_wo_entrp">    -44.17476919 </i>
    <i name="e_0_energy">    -44.17413740 </i>
   </energy>
  </scstep>
  <scstep>
   <time name="diag">   11.27   11.29</time>
   <time name="diis">   39.69   39.74</time>
   <time name="orth">    0.48    0.48</time>
   <time name="total">   57.49   57.56</time>
   <energy>
    <i name="e_fr_energy">    -44.17892047 </i>
    <i name="e_wo_entrp">    -44.17914221 </i>
    <i name="e_0_energy">    -44.17897590 </i>
   </energy>
  </scstep>
  <scstep>
   <time name="diag">   11.26   11.27</time>
   <time name="diis">   37.50   37.56</time>
   <time name="orth">    0.48    0.48</time>
   <time name="total">   55.30   55.38</time>
   <energy>
    <i name="e_fr_energy">    -44.19111102 </i>
    <i name="e_wo_entrp">    -44.19354451 </i>
    <i name="e_0_energy">    -44.19171939 </i>
   </energy>
  </scstep>
  <scstep>
   <time name="diag">   11.28   11.30</time>
   <time name="diis">   37.71   37.76</time>
   <time name="orth">    0.48    0.48</time>
   <time name="total">   55.52   55.60</time>
   <energy>
    <i name="e_fr_energy">    -44.20670325 </i>
    <i name="e_wo_entrp">    -44.20935979 </i>
    <i name="e_0_energy">    -44.20736739 </i>
   </energy>
  </scstep>
  <scstep>
   <time name="diag">   11.29   11.30</time>
   <time name="diis">   39.73   39.79</time>
   <time name="orth">    0.48    0.48</time>
   <time name="total">   57.56   57.64</time>
   <energy>
    <i name="e_fr_energy">    -44.21103033 </i>
    <i name="e_wo_entrp">    -44.21286155 </i>
    <i name="e_0_energy">    -44.21148813 </i>
   </energy>
  </scstep>
  <scstep>
   <time name="diag">   11.30   11.31</time>
   <time name="diis">   39.42   39.47</time>
   <time name="orth">    0.48    0.48</time>
   <time name="total">   57.26   57.34</time>
   <energy>
    <i name="e_fr_energy">    -44.23450812 </i>
    <i name="e_wo_entrp">    -44.23786120 </i>
    <i name="e_0_energy">    -44.23534639 </i>
   </energy>
  </scstep>
  <scstep>
   <time name="diag">   11.28   11.29</time>
   <time name="diis">   38.20   38.25</time>
   <time name="orth">    0.48    0.48</time>
   <time name="total">   56.02   56.09</time>
   <energy>
    <i name="e_fr_energy">    -44.24972938 </i>
    <i name="e_wo_entrp">    -44.25180233 </i>
    <i name="e_0_energy">    -44.25024761 </i>
   </energy>
  </scstep>
  <scstep>
   <time name="diag">   11.26   11.27</time>
   <time name="diis">   43.52   43.58</time>
   <time name="orth">    0.48    0.48</time>
   <time name="total">   61.31   61.40</time>
   <energy>
    <i name="e_fr_energy">    -44.26398448 </i>
    <i name="e_wo_entrp">    -44.26646847 </i>
    <i name="e_0_energy">    -44.26460547 </i>
   </energy>
  </scstep>
  <scstep>
   <time name="diag">   11.26   11.27</time>
   <time name="diis">   42.67   42.73</time>
   <time name="orth">    0.48    0.48</time>
   <time name="total">   60.44   60.52</time>
   <energy>
    <i name="e_fr_energy">    -44.27573800 </i>
    <i name="e_wo_entrp">    -44.27884421 </i>
    <i name="e_0_energy">    -44.27651455 </i>
   </energy>
  </scstep>
  <scstep>
   <time name="diag">   11.31   11.32</time>
   <time name="diis">   46.05   46.11</time>
   <time name="orth">    0.48    0.48</time>
   <time name="total">   63.88   63.97</time>
   <energy>
    <i name="e_fr_energy">    -44.27463538 </i>
    <i name="e_wo_entrp">    -44.27777042 </i>
    <i name="e_0_energy">    -44.27541914 </i>
   </energy>
  </scstep>
  <scstep>
   <time name="diag">   11.32   11.34</time>
   <time name="diis">   39.28   39.33</time>
   <time name="orth">    0.48    0.48</time>
   <time name="total">   57.14   57.22</time>
   <energy>
    <i name="e_fr_energy">    -44.31342386 </i>
    <i name="e_wo_entrp">    -44.31677954 </i>
    <i name="e_0_energy">    -44.31426278 </i>
   </energy>
  </scstep>
  <scstep>
   <time name="diag">   11.28   11.30</time>
   <time name="diis">   38.64   38.70</time>
   <time name="orth">    0.48    0.48</time>
   <time name="total">   56.47   56.55</time>
   <energy>
    <i name="e_fr_energy">    -44.35189041 </i>
    <i name="e_wo_entrp">    -44.35523724 </i>
    <i name="e_0_energy">    -44.35272712 </i>
   </energy>
  </scstep>
  <scstep>
   <time name="diag">   11.26   11.28</time>
   <time name="diis">   37.33   37.38</time>
   <time name="orth">    0.48    0.47</time>
   <time name="total">   55.08   55.15</time>
   <energy>
    <i name="e_fr_energy">    -44.39231969 </i>
    <i name="e_wo_entrp">    -44.39566087 </i>
    <i name="e_0_energy">    -44.39315499 </i>
   </energy>
  </scstep>
  <scstep>
   <time name="diag">   11.10   11.12</time>
   <time name="diis">   37.53   37.57</time>
   <time name="orth">    0.48    0.47</time>
   <time name="total">   55.12   55.18</time>
   <energy>
    <i name="e_fr_energy">    -44.43951843 </i>
    <i name="e_wo_entrp">    -44.44285764 </i>
    <i name="e_0_energy">    -44.44035323 </i>
   </energy>
  </scstep>
  <scstep>
   <time name="diag">   11.11   11.12</time>
   <time name="diis">   39.89   39.93</time>
   <time name="orth">    0.48    0.49</time>
   <time name="total">   57.64   57.70</time>
   <energy>
    <i name="e_fr_energy">    -44.46249507 </i>
    <i name="e_wo_entrp">    -44.46578178 </i>
    <i name="e_0_energy">    -44.46331675 </i>
   </energy>
  </scstep>
  <scstep>
   <time name="diag">   11.14   11.15</time>
   <time name="diis">   44.73   44.78</time>
   <time name="orth">    0.47    0.47</time>
   <time name="total">   62.40   62.47</time>
   <energy>
    <i name="e_fr_energy">    -44.46632585 </i>
    <i name="e_wo_entrp">    -44.46959834 </i>
    <i name="e_0_energy">    -44.46714397 </i>
   </energy>
  </scstep>
  <scstep>
   <time name="diag">   11.30   11.31</time>
   <time name="diis">   37.93   38.11</time>
   <time name="orth">    0.48    0.48</time>
   <time name="total">   55.84   56.04</time>
   <energy>
    <i name="e_fr_energy">    -44.46704802 </i>
    <i name="e_wo_entrp">    -44.47028116 </i>
    <i name="e_0_energy">    -44.46785631 </i>
   </energy>
  </scstep>
  <scstep>
   <time name="diag">   11.16   11.17</time>
   <time name="diis">   28.38   28.42</time>
   <time name="orth">    0.48    0.48</time>
   <time name="total">   46.08   46.15</time>
   <energy>
    <i name="e_fr_energy">    -44.46754089 </i>
    <i name="e_wo_entrp">    -44.47074566 </i>
    <i name="e_0_energy">    -44.46834209 </i>
   </energy>
  </scstep>
  <scstep>
   <time name="diag">   11.24   11.25</time>
   <time name="diis">   25.99   26.02</time>
   <time name="orth">    0.47    0.47</time>
   <time name="total">   43.71   43.98</time>
   <energy>
    <i name="e_fr_energy">    -44.46788342 </i>
    <i name="e_wo_entrp">    -44.47105800 </i>
    <i name="e_0_energy">    -44.46867707 </i>
   </energy>
  </scstep>
  <scstep>
   <time name="diag">   11.36   11.37</time>
   <time name="diis">   25.16   25.19</time>
   <time name="orth">    0.48    0.47</time>
   <time name="total">   43.05   43.09</time>
   <energy>
    <i name="e_fr_energy">    -44.46833981 </i>
    <i name="e_wo_entrp">    -44.47147989 </i>
    <i name="e_0_energy">    -44.46912483 </i>
   </energy>
  </scstep>
  <scstep>
   <time name="diag">   11.33   11.34</time>
   <time name="diis">   24.73   24.76</time>
   <time name="orth">    0.48    0.48</time>
   <time name="total">   42.67   42.72</time>
   <energy>
    <i name="e_fr_energy">    -44.46856630 </i>
    <i name="e_wo_entrp">    -44.47167746 </i>
    <i name="e_0_energy">    -44.46934409 </i>
   </energy>
  </scstep>
  <scstep>
   <time name="diag">   11.28   11.29</time>
   <time name="diis">   24.63   24.66</time>
   <time name="orth">    0.48    0.48</time>
   <time name="total">   42.52   42.60</time>
   <energy>
    <i name="e_fr_energy">    -44.46876898 </i>
    <i name="e_wo_entrp">    -44.47185520 </i>
    <i name="e_0_energy">    -44.46954054 </i>
[...]
       <r>     6.5216     0.0000    31.0000 </r>
       <r>     6.5997     0.0000    31.0000 </r>
       <r>     6.6777     0.0000    31.0000 </r>
       <r>     6.7557     0.0000    31.0000 </r>
       <r>     6.8338     0.0000    31.0000 </r>
       <r>     6.9118     0.0000    31.0000 </r>
       <r>     6.9898     0.0000    31.0000 </r>
       <r>     7.0679     0.0000    31.0000 </r>
       <r>     7.1459     0.0000    31.0000 </r>
       <r>     7.2239     0.0000    31.0000 </r>
       <r>     7.3020     0.0000    31.0000 </r>
       <r>     7.3800     0.0000    31.0000 </r>
       <r>     7.4580     0.0000    31.0000 </r>
       <r>     7.5361     0.0000    31.0000 </r>
       <r>     7.6141     0.0000    31.0000 </r>
       <r>     7.6921     0.0000    31.0000 </r>
       <r>     7.7702     0.0000    31.0000 </r>
       <r>     7.8482     0.0000    31.0000 </r>
       <r>     7.9262     0.0000    31.0000 </r>
       <r>     8.0043     0.0000    31.0000 </r>
       <r>     8.0823     0.0000    31.0000 </r>
       <r>     8.1603     0.0000    31.0000 </r>
       <r>     8.2384     0.0000    31.0000 </r>
       <r>     8.3164     0.0000    31.0000 </r>
       <r>     8.3944     0.0000    31.0000 </r>
       <r>     8.4725     0.0000    31.0000 </r>
       <r>     8.5505     0.0000    31.0000 </r>
       <r>     8.6285     0.0000    31.0000 </r>
       <r>     8.7066     0.0000    31.0000 </r>
       <r>     8.7846     0.0000    31.0000 </r>
       <r>     8.8626     0.0000    31.0000 </r>
       <r>     8.9407     0.0000    31.0000 </r>
       <r>     9.0187     0.0000    31.0000 </r>
       <r>     9.0967     0.0000    31.0000 </r>
       <r>     9.1748     0.0000    31.0000 </r>
       <r>     9.2528     0.0000    31.0000 </r>
       <r>     9.3308     0.0000    31.0000 </r>
       <r>     9.4089     0.0000    31.0000 </r>
       <r>     9.4869     0.0000    31.0000 </r>
       <r>     9.5649     0.0000    31.0000 </r>
       <r>     9.6430     0.0000    31.0000 </r>
       <r>     9.7210     0.0000    31.0000 </r>
       <r>     9.7990     0.0000    31.0000 </r>
       <r>     9.8771     0.0000    31.0000 </r>
       <r>     9.9551     0.0000    31.0000 </r>
       <r>    10.0331     0.0000    31.0000 </r>
       <r>    10.1112     0.0000    31.0000 </r>
       <r>    10.1892     0.0000    31.0000 </r>
       <r>    10.2672     0.0000    31.0000 </r>
       <r>    10.3453     0.0000    31.0000 </r>
       <r>    10.4233     0.0000    31.0000 </r>
       <r>    10.5013     0.0000    31.0000 </r>
       <r>    10.5794     0.0000    31.0000 </r>
       <r>    10.6574     0.0000    31.0000 </r>
       <r>    10.7354     0.0000    31.0000 </r>
       <r>    10.8135     0.0000    31.0000 </r>
       <r>    10.8915     0.0000    31.0000 </r>
       <r>    10.9695     0.0000    31.0000 </r>
       <r>    11.0476     0.0000    31.0000 </r>
       <r>    11.1256     0.0000    31.0000 </r>
       <r>    11.2036     0.0000    31.0000 </r>
       <r>    11.2817     0.0000    31.0000 </r>
       <r>    11.3597     0.0000    31.0000 </r>
       <r>    11.4377     0.0000    31.0000 </r>
       <r>    11.5158     0.0000    31.0000 </r>
       <r>    11.5938     0.0000    31.0000 </r>
       <r>    11.6718     0.0000    31.0000 </r>
       <r>    11.7499     0.0000    31.0000 </r>
       <r>    11.8279     0.0000    31.0000 </r>
       <r>    11.9059     0.0000    31.0000 </r>
       <r>    11.9840     0.0000    31.0000 </r>
       <r>    12.0620     0.0000    31.0000 </r>
       <r>    12.1400     0.0000    31.0000 </r>
       <r>    12.2181     0.0000    31.0000 </r>
       <r>    12.2961     0.0000    31.0000 </r>
       <r>    12.3741     0.0000    31.0000 </r>
      </set>
      <set comment="spin 2">
       <r>   -11.0359     0.0000     0.0000 </r>
       <r>   -10.9579     0.0000     0.0000 </r>
       <r>   -10.8799     0.0000     0.0000 </r>
       <r>   -10.8018     0.0000     0.0000 </r>
       <r>   -10.7238     0.0000     0.0000 </r>
       <r>   -10.6458     0.0000     0.0000 </r>
       <r>   -10.5677     0.0000     0.0000 </r>
       <r>   -10.4897     0.0000     0.0000 </r>
       <r>   -10.4117     0.0000     0.0000 </r>
       <r>   -10.3336     0.0000     0.0000 </r>
       <r>   -10.2556     0.0000     0.0000 </r>
       <r>   -10.1776     0.0000     0.0000 </r>
       <r>   -10.0995     0.0000     0.0000 </r>
       <r>   -10.0215     0.0000     0.0000 </r>
       <r>    -9.9435     0.0000     0.0000 </r>
       <r>    -9.8654     0.0000     0.0000 </r>
       <r>    -9.7874     0.0000     0.0000 </r>
       <r>    -9.7094     0.0000     0.0000 </r>
       <r>    -9.6313     0.0000     0.0000 </r>
       <r>    -9.5533     0.0000     0.0000 </r>
       <r>    -9.4753     0.0000     0.0000 </r>
       <r>    -9.3972     0.0000     0.0000 </r>
       <r>    -9.3192     0.0000     0.0000 </r>
       <r>    -9.2412     0.0000     0.0000 </r>
       <r>    -9.1631     0.0000     0.0000 </r>
       <r>    -9.0851     0.0000     0.0000 </r>
       <r>    -9.0071     0.0000     0.0000 </r>
       <r>    -8.9290     0.0000     0.0000 </r>
       <r>    -8.8510     0.0000     0.0000 </r>
       <r>    -8.7730     0.0000     0.0000 </r>
       <r>    -8.6949     0.0006     0.0000 </r>
       <r>    -8.6169    -0.0025    -0.0001 </r>
       <r>    -8.5389     0.0018    -0.0000 </r>
       <r>    -8.4608     0.0878     0.0068 </r>
       <r>    -8.3828     0.0400     0.0100 </r>
       <r>    -8.3048     0.4932     0.0485 </r>
       <r>    -8.2267     0.5224     0.0892 </r>
       <r>    -8.1487    -0.0285     0.0870 </r>
       <r>    -8.0707    -0.0572     0.0825 </r>
       <r>    -7.9926     0.3844     0.1125 </r>
       <r>    -7.9146     0.5673     0.1568 </r>
       <r>    -7.8366     0.3671     0.1854 </r>
       <r>    -7.7585     0.6156     0.2335 </r>
       <r>    -7.6805     0.0330     0.2361 </r>
       <r>    -7.6025    -0.0187     0.2346 </r>
       <r>    -7.5244    -0.0028     0.2344 </r>
       <r>    -7.4464    -0.0923     0.2272 </r>
       <r>    -7.3684     0.8235     0.2914 </r>
       <r>    -7.2903     1.1962     0.3848 </r>
       <r>    -7.2123    -0.0074     0.3842 </r>
       <r>    -7.1343    -0.0557     0.3799 </r>
       <r>    -7.0562     0.5510     0.4229 </r>
       <r>    -6.9782     0.4766     0.4600 </r>
       <r>    -6.9002    -0.0357     0.4573 </r>
       <r>    -6.8221    -0.0067     0.4567 </r>
       <r>    -6.7441    -0.0426     0.4534 </r>
       <r>    -6.6661     0.3149     0.4780 </r>
       <r>    -6.5880     0.5780     0.5231 </r>
       <r>    -6.5100     1.0139     0.6022 </r>
       <r>    -6.4320     1.0430     0.6836 </r>
       <r>    -6.3539    -0.0398     0.6805 </r>
       <r>    -6.2759    -0.0296     0.6782 </r>
       <r>    -6.1979    -0.0310     0.6757 </r>
       <r>    -6.1198     0.4779     0.7130 </r>
       <r>    -6.0418     0.5467     0.7557 </r>
       <r>    -5.9638    -0.0245     0.7538 </r>
       <r>    -5.8857    -0.1076     0.7454 </r>
       <r>    -5.8077     0.7723     0.8057 </r>
       <r>    -5.7297     1.2064     0.8998 </r>
       <r>    -5.6516     0.2444     0.9189 </r>
       <r>    -5.5736     1.0007     0.9969 </r>
       <r>    -5.4956     1.2153     1.0918 </r>
       <r>    -5.4175     0.5452     1.1343 </r>
       <r>    -5.3395     0.2664     1.1551 </r>
       <r>    -5.2615     0.6477     1.2057 </r>
       <r>    -5.1834     0.8733     1.2738 </r>
       <r>    -5.1054     1.3423     1.3785 </r>
       <r>    -5.0274     0.3421     1.4052 </r>
       <r>    -4.9493     1.2778     1.5050 </r>
       <r>    -4.8713     2.3534     1.6886 </r>
       <r>    -4.7933     0.5794     1.7338 </r>
       <r>    -4.7152     1.3344     1.8379 </r>
       <r>    -4.6372     1.4410     1.9504 </r>
       <r>    -4.5592     0.0757     1.9563 </r>
       <r>    -4.4811     1.6243     2.0830 </r>
       <r>    -4.4031     1.1766     2.1749 </r>
       <r>    -4.3251     2.5860     2.3767 </r>
       <r>    -4.2470     4.1234     2.6984 </r>
       <r>    -4.1690     2.4922     2.8929 </r>
       <r>    -4.0910     1.8717     3.0390 </r>
       <r>    -4.0129     3.0210     3.2747 </r>
       <r>    -3.9349     4.2243     3.6043 </r>
       <r>    -3.8569     2.2386     3.7790 </r>
       <r>    -3.7788     0.4979     3.8179 </r>
       <r>    -3.7008     0.8804     3.8866 </r>
       <r>    -3.6228     2.1098     4.0512 </r>
       <r>    -3.5447     3.4730     4.3222 </r>
       <r>    -3.4667     4.7830     4.6955 </r>
       <r>    -3.3887     4.5714     5.0522 </r>
       <r>    -3.3106     3.1109     5.2949 </r>
       <r>    -3.2326     2.7058     5.5061 </r>
       <r>    -3.1546     3.9005     5.8105 </r>
       <r>    -3.0765     4.0819     6.1290 </r>
       <r>    -2.9985     3.0306     6.3655 </r>
       <r>    -2.9205     5.1088     6.7641 </r>
       <r>    -2.8424     4.9682     7.1518 </r>
       <r>    -2.7644     4.5092     7.5037 </r>
       <r>    -2.6863     4.2378     7.8344 </r>
       <r>    -2.6083     4.5348     8.1882 </r>
       <r>    -2.5303     7.9041     8.8050 </r>
       <r>    -2.4522     5.0701     9.2007 </r>
       <r>    -2.3742     7.3550     9.7746 </r>
       <r>    -2.2962    12.0770    10.7170 </r>
       <r>    -2.2181     9.4364    11.4534 </r>
       <r>    -2.1401     7.3823    12.0294 </r>
       <r>    -2.0621     7.4936    12.6142 </r>
       <r>    -1.9840     4.2525    12.9460 </r>
       <r>    -1.9060     0.3536    12.9736 </r>
       <r>    -1.8280     1.3292    13.0774 </r>
       <r>    -1.7499     4.2256    13.4071 </r>
       <r>    -1.6719     5.6572    13.8486 </r>
       <r>    -1.5939     6.7273    14.3735 </r>
       <r>    -1.5158     5.8341    14.8288 </r>
       <r>    -1.4378     6.3948    15.3278 </r>
       <r>    -1.3598     5.0426    15.7213 </r>
       <r>    -1.2817     2.3170    15.9021 </r>
       <r>    -1.2037     3.8395    16.2017 </r>
       <r>    -1.1257     7.1548    16.7600 </r>
       <r>    -1.0476     5.5146    17.1903 </r>
       <r>    -0.9696     5.0862    17.5872 </r>
       <r>    -0.8916     4.2413    17.9182 </r>
       <r>    -0.8135     1.2217    18.0135 </r>
       <r>    -0.7355     1.8530    18.1581 </r>
       <r>    -0.6575     4.4245    18.5034 </r>
       <r>    -0.5794     6.4915    19.0099 </r>
       <r>    -0.5014     6.0032    19.4784 </r>
       <r>    -0.4234     1.5665    19.6006 </r>
       <r>    -0.3453     1.8075    19.7417 </r>
       <r>    -0.2673     5.5459    20.1744 </r>
       <r>    -0.1893     6.7935    20.7045 </r>
       <r>    -0.1112     5.7707    21.1548 </r>
       <r>    -0.0332     6.3966    21.6540 </r>
       <r>     0.0448     6.9081    22.1931 </r>
       <r>     0.1229     7.8276    22.8039 </r>
       <r>     0.2009    10.0256    23.5862 </r>
       <r>     0.2789    11.7571    24.5037 </r>
       <r>     0.3570    10.6772    25.3368 </r>
       <r>     0.4350    10.0617    26.1220 </r>
       <r>     0.5130    11.8768    27.0488 </r>
       <r>     0.5911    10.2620    27.8496 </r>
       <r>     0.6691     6.3501    28.3451 </r>
       <r>     0.7471     9.3853    29.0775 </r>
       <r>     0.8252    11.7575    29.9949 </r>
       <r>     0.9032     6.3174    30.4879 </r>
       <r>     0.9812     5.0885    30.8850 </r>
       <r>     1.0593     1.6823    31.0163 </r>
       <r>     1.1373    -0.2183    30.9992 </r>
       <r>     1.2153    -0.0014    30.9991 </r>
       <r>     1.2934     0.0108    31.0000 </r>
       <r>     1.3714     0.0005    31.0000 </r>
       <r>     1.4494     0.0000    31.0000 </r>
       <r>     1.5275     0.0000    31.0000 </r>
       <r>     1.6055     0.0000    31.0000 </r>
       <r>     1.6835     0.0000    31.0000 </r>
       <r>     1.7616     0.0000    31.0000 </r>
       <r>     1.8396     0.0000    31.0000 </r>
       <r>     1.9176     0.0000    31.0000 </r>
       <r>     1.9957     0.0000    31.0000 </r>
       <r>     2.0737     0.0000    31.0000 </r>
       <r>     2.1517     0.0000    31.0000 </r>
       <r>     2.2298     0.0000    31.0000 </r>
       <r>     2.3078     0.0000    31.0000 </r>
       <r>     2.3858     0.0000    31.0000 </r>
       <r>     2.4639     0.0000    31.0000 </r>
       <r>     2.5419     0.0000    31.0000 </r>
       <r>     2.6199     0.0000    31.0000 </r>
       <r>     2.6980     0.0000    31.0000 </r>
       <r>     2.7760     0.0000    31.0000 </r>
       <r>     2.8540     0.0000    31.0000 </r>
       <r>     2.9321     0.0000    31.0000 </r>
       <r>     3.0101     0.0000    31.0000 </r>
       <r>     3.0881     0.0000    31.0000 </r>
       <r>     3.1662     0.0000    31.0000 </r>
       <r>     3.2442     0.0000    31.0000 </r>
       <r>     3.3222     0.0000    31.0000 </r>
       <r>     3.4003     0.0000    31.0000 </r>
       <r>     3.4783     0.0000    31.0000 </r>
       <r>     3.5563     0.0000    31.0000 </r>
       <r>     3.6344     0.0000    31.0000 </r>
       <r>     3.7124     0.0000    31.0000 </r>
       <r>     3.7904     0.0000    31.0000 </r>
       <r>     3.8685     0.0000    31.0000 </r>
       <r>     3.9465     0.0000    31.0000 </r>
       <r>     4.0245     0.0000    31.0000 </r>
       <r>     4.1026     0.0000    31.0000 </r>
       <r>     4.1806     0.0000    31.0000 </r>
       <r>     4.2586     0.0000    31.0000 </r>
       <r>     4.3367     0.0000    31.0000 </r>
       <r>     4.4147     0.0000    31.0000 </r>
       <r>     4.4927     0.0000    31.0000 </r>
       <r>     4.5708     0.0000    31.0000 </r>
       <r>     4.6488     0.0000    31.0000 </r>
       <r>     4.7268     0.0000    31.0000 </r>
       <r>     4.8049     0.0000    31.0000 </r>
       <r>     4.8829     0.0000    31.0000 </r>
       <r>     4.9609     0.0000    31.0000 </r>
       <r>     5.0390     0.0000    31.0000 </r>
       <r>     5.1170     0.0000    31.0000 </r>
       <r>     5.1950     0.0000    31.0000 </r>
       <r>     5.2731     0.0000    31.0000 </r>
       <r>     5.3511     0.0000    31.0000 </r>
       <r>     5.4291     0.0000    31.0000 </r>
       <r>     5.5072     0.0000    31.0000 </r>
       <r>     5.5852     0.0000    31.0000 </r>
       <r>     5.6632     0.0000    31.0000 </r>
       <r>     5.7413     0.0000    31.0000 </r>
       <r>     5.8193     0.0000    31.0000 </r>
       <r>     5.8974     0.0000    31.0000 </r>
       <r>     5.9754     0.0000    31.0000 </r>
       <r>     6.0534     0.0000    31.0000 </r>
       <r>     6.1315     0.0000    31.0000 </r>
       <r>     6.2095     0.0000    31.0000 </r>
       <r>     6.2875     0.0000    31.0000 </r>
       <r>     6.3656     0.0000    31.0000 </r>
       <r>     6.4436     0.0000    31.0000 </r>
       <r>     6.5216     0.0000    31.0000 </r>
       <r>     6.5997     0.0000    31.0000 </r>
       <r>     6.6777     0.0000    31.0000 </r>
       <r>     6.7557     0.0000    31.0000 </r>
       <r>     6.8338     0.0000    31.0000 </r>
       <r>     6.9118     0.0000    31.0000 </r>
       <r>     6.9898     0.0000    31.0000 </r>
       <r>     7.0679     0.0000    31.0000 </r>
       <r>     7.1459     0.0000    31.0000 </r>
       <r>     7.2239     0.0000    31.0000 </r>
       <r>     7.3020     0.0000    31.0000 </r>
       <r>     7.3800     0.0000    31.0000 </r>
       <r>     7.4580     0.0000    31.0000 </r>
       <r>     7.5361     0.0000    31.0000 </r>
       <r>     7.6141     0.0000    31.0000 </r>
       <r>     7.6921     0.0000    31.0000 </r>
       <r>     7.7702     0.0000    31.0000 </r>
       <r>     7.8482     0.0000    31.0000 </r>
       <r>     7.9262     0.0000    31.0000 </r>
       <r>     8.0043     0.0000    31.0000 </r>
       <r>     8.0823     0.0000    31.0000 </r>
       <r>     8.1603     0.0000    31.0000 </r>
       <r>     8.2384     0.0000    31.0000 </r>
       <r>     8.3164     0.0000    31.0000 </r>
       <r>     8.3944     0.0000    31.0000 </r>
       <r>     8.4725     0.0000    31.0000 </r>
       <r>     8.5505     0.0000    31.0000 </r>
       <r>     8.6285     0.0000    31.0000 </r>
       <r>     8.7066     0.0000    31.0000 </r>
       <r>     8.7846     0.0000    31.0000 </r>
       <r>     8.8626     0.0000    31.0000 </r>
       <r>     8.9407     0.0000    31.0000 </r>
       <r>     9.0187     0.0000    31.0000 </r>
       <r>     9.0967     0.0000    31.0000 </r>
       <r>     9.1748     0.0000    31.0000 </r>
       <r>     9.2528     0.0000    31.0000 </r>
       <r>     9.3308     0.0000    31.0000 </r>
       <r>     9.4089     0.0000    31.0000 </r>
       <r>     9.4869     0.0000    31.0000 </r>
       <r>     9.5649     0.0000    31.0000 </r>
       <r>     9.6430     0.0000    31.0000 </r>
       <r>     9.7210     0.0000    31.0000 </r>
       <r>     9.7990     0.0000    31.0000 </r>
       <r>     9.8771     0.0000    31.0000 </r>
       <r>     9.9551     0.0000    31.0000 </r>
       <r>    10.0331     0.0000    31.0000 </r>
       <r>    10.1112     0.0000    31.0000 </r>
       <r>    10.1892     0.0000    31.0000 </r>
       <r>    10.2672     0.0000    31.0000 </r>
       <r>    10.3453     0.0000    31.0000 </r>
       <r>    10.4233     0.0000    31.0000 </r>
       <r>    10.5013     0.0000    31.0000 </r>
       <r>    10.5794     0.0000    31.0000 </r>
       <r>    10.6574     0.0000    31.0000 </r>
       <r>    10.7354     0.0000    31.0000 </r>
       <r>    10.8135     0.0000    31.0000 </r>
       <r>    10.8915     0.0000    31.0000 </r>
       <r>    10.9695     0.0000    31.0000 </r>
       <r>    11.0476     0.0000    31.0000 </r>
       <r>    11.1256     0.0000    31.0000 </r>
       <r>    11.2036     0.0000    31.0000 </r>
       <r>    11.2817     0.0000    31.0000 </r>
       <r>    11.3597     0.0000    31.0000 </r>
       <r>    11.4377     0.0000    31.0000 </r>
       <r>    11.5158     0.0000    31.0000 </r>
       <r>    11.5938     0.0000    31.0000 </r>
       <r>    11.6718     0.0000    31.0000 </r>
       <r>    11.7499     0.0000    31.0000 </r>
       <r>    11.8279     0.0000    31.0000 </r>
       <r>    11.9059     0.0000    31.0000 </r>
       <r>    11.9840     0.0000    31.0000 </r>
       <r>    12.0620     0.0000    31.0000 </r>
       <r>    12.1400     0.0000    31.0000 </r>
       <r>    12.2181     0.0000    31.0000 </r>
       <r>    12.2961     0.0000    31.0000 </r>
       <r>    12.3741     0.0000    31.0000 </r>
      </set>
     </set>
    </array>
   </total>
  </dos>
 </calculation>
 <structure name="finalpos" >
  <crystal>
   <varray name="basis" >
    <v>       3.98651217       0.00000000       0.00000000 </v>
    <v>       1.99325608       3.45242081       0.00000000 </v>
    <v>       0.00000000       0.00000000      18.00000000 </v>
   </varray>
   <i name="volume">    247.73611635 </i>
   <varray name="rec_basis" >
    <v>       0.25084584      -0.14482591       0.00000000 </v>
    <v>       0.00000000       0.28965183       0.00000000 </v>
    <v>       0.00000000       0.00000000       0.05555556 </v>
   </varray>
  </crystal>
  <varray name="positions" >
   <v>       0.00000000       0.00000000       0.00000000 </v>
   <v>       0.33344853       0.33347615       0.04522778 </v>
   <v>       0.66672749       0.66728582       0.07823076 </v>
   <v>       0.00026849       0.00048254       0.13544662 </v>
   <v>       0.33352882       0.33416814       0.17223821 </v>
   <v>       0.66695909       0.66748440       0.21025871 </v>
  </varray>
  <varray name="selective"  type="logical" >
   <v type="logical" >  F  F  F </v>
   <v type="logical" >  F  F  F </v>
   <v type="logical" >  T  T  T </v>
   <v type="logical" >  T  T  T </v>
   <v type="logical" >  T  T  T </v>
   <v type="logical" >  T  T  T </v>
  </varray>
  <nose>
   <v>      -3.00000000       0.00000000       0.00010000       0.00010000 </v>
  </nose>
 </structure>
</modeling>
