    2    2  300    1
  0.5461575E+03  0.1010000E-08  0.1030000E-08  0.1050000E-08  0.5000000E-15
  1.000000000000000E-004
  CAR 
 O2                                      
   12    1   10
 
  0.0000000E+00  0.0000000E+00  0.0000000E+00  0.1000000E+01
   1      -23.853070
   2      -23.850839
   3       -8.939176
   4       -8.916652
   5       -8.915983
   6       -8.909358
   7       -8.909200
   8       -8.887269
   9       -0.511066
  10        0.943317
