       N       E                     dE             d eps       ncg     rms          rms(c)
DAV:   1     0.806073519471E+02    0.80607E+02   -0.22394E+03    28   0.491E+02
DAV:   2     0.103669743675E+02   -0.70240E+02   -0.69892E+02    38   0.124E+02
DAV:   3    -0.390111619436E+01   -0.14268E+02   -0.14085E+02    32   0.727E+01
DAV:   4    -0.405984799997E+01   -0.15873E+00   -0.15534E+00    24   0.781E+00
DAV:   5    -0.406348564973E+01   -0.36376E-02   -0.36365E-02    32   0.104E+00    0.389E+00
RMM:   6    -0.392522333360E+01    0.13826E+00   -0.10428E-01    20   0.283E+00    0.217E+00
RMM:   7    -0.390011672278E+01    0.25107E-01   -0.74868E-02    20   0.244E+00    0.341E-01
RMM:   8    -0.389854773439E+01    0.15690E-02   -0.42241E-03    20   0.580E-01    0.475E-02
RMM:   9    -0.389885127691E+01   -0.30354E-03   -0.32221E-04    17   0.129E-01    0.317E-02
RMM:  10    -0.389945380720E+01   -0.60253E-03   -0.11518E-04    13   0.765E-02    0.170E-02
RMM:  11    -0.389998547863E+01   -0.53167E-03   -0.81456E-05    13   0.652E-02    0.104E-02
RMM:  12    -0.390066249642E+01   -0.67702E-03   -0.11253E-04    13   0.569E-02    0.723E-03
RMM:  13    -0.390086953593E+01   -0.20704E-03   -0.41654E-05    10   0.336E-02    0.288E-03
RMM:  14    -0.390099992501E+01   -0.13039E-03   -0.19507E-05    12   0.292E-02    0.394E-03
RMM:  15    -0.390103851056E+01   -0.38586E-04   -0.62706E-06    10   0.189E-02
   1 F= -.39010385E+01 E0= -.37882007E+01  d E =-.390104E+01
       N       E                     dE             d eps       ncg     rms          rms(c)
DAV:   1    -0.592215650907E+01   -0.20212E+01   -0.85457E+02    20   0.272E+02    0.488E+00
RMM:   2    -0.821656597364E+01   -0.22944E+01   -0.25238E+01    20   0.495E+01    0.379E+00
RMM:   3    -0.815830106561E+01    0.58265E-01   -0.44295E-01    20   0.621E+00    0.307E+00
RMM:   4    -0.807386207087E+01    0.84439E-01   -0.84877E-01    20   0.774E+00    0.710E-01
RMM:   5    -0.807567810920E+01   -0.18160E-02   -0.13487E-02    20   0.985E-01    0.558E-01
RMM:   6    -0.807051639103E+01    0.51617E-02   -0.59942E-02    20   0.195E+00    0.225E-01
RMM:   7    -0.807013677303E+01    0.37962E-03   -0.58934E-04    18   0.191E-01    0.162E-01
RMM:   8    -0.807003159653E+01    0.10518E-03   -0.45668E-03    20   0.535E-01    0.532E-02
RMM:   9    -0.807031269402E+01   -0.28110E-03   -0.11223E-04    13   0.989E-02    0.218E-02
RMM:  10    -0.807076970589E+01   -0.45701E-03   -0.48275E-04    18   0.168E-01    0.374E-02
RMM:  11    -0.807089200427E+01   -0.12230E-03   -0.18235E-04    13   0.114E-01    0.514E-03
RMM:  12    -0.807097323863E+01   -0.81234E-04   -0.16478E-05    13   0.292E-02
   2 F= -.80709732E+01 E0= -.79581355E+01  d E =-.416993E+01
       N       E                     dE             d eps       ncg     rms          rms(c)
DAV:   1     0.577245189877E+02    0.65795E+02   -0.45566E+03    32   0.422E+02    0.246E+01
RMM:   2     0.176678214804E+01   -0.55958E+02   -0.75843E+02    30   0.186E+02    0.588E+00
RMM:   3    -0.638283828303E+01   -0.81496E+01   -0.14404E+02    22   0.764E+01    0.150E+01
RMM:   4    -0.519412804352E+01    0.11887E+01   -0.41824E+00    20   0.147E+01    0.130E+01
RMM:   5    -0.413548177116E+01    0.10586E+01   -0.28897E-01    20   0.439E+00    0.115E+01
RMM:   6    -0.276482292508E+01    0.13707E+01   -0.73942E-01    20   0.687E+00    0.901E+00
RMM:   7    -0.524025393680E+00    0.22408E+01   -0.10509E+01    20   0.245E+01    0.146E+00
RMM:   8    -0.611714583851E+00   -0.87689E-01   -0.24349E-01    20   0.367E+00    0.148E+00
RMM:   9    -0.618799366899E+00   -0.70848E-02   -0.26349E-02    20   0.147E+00    0.103E+00
RMM:  10    -0.620985313484E+00   -0.21859E-02   -0.22408E-01    20   0.336E+00    0.602E-01
RMM:  11    -0.628057650652E+00   -0.70723E-02   -0.54093E-02    20   0.202E+00    0.315E-01
RMM:  12    -0.628222997376E+00   -0.16535E-03   -0.51576E-03    20   0.568E-01    0.134E-01
RMM:  13    -0.632765011287E+00   -0.45420E-02   -0.19944E-02    20   0.980E-01    0.285E-01
RMM:  14    -0.632090612315E+00    0.67440E-03   -0.40378E-03    20   0.521E-01    0.696E-02
RMM:  15    -0.633131918562E+00   -0.10413E-02   -0.28375E-03    20   0.389E-01    0.810E-02
RMM:  16    -0.633335902451E+00   -0.20398E-03   -0.10922E-04    12   0.994E-02    0.536E-02
RMM:  17    -0.633332304532E+00    0.35979E-05   -0.34023E-04    18   0.141E-01
   3 F= -.63333230E+00 E0= -.32653566E+00  d E =0.743764E+01
       N       E                     dE             d eps       ncg     rms          rms(c)
DAV:   1    -0.633253130014E+00    0.82772E-04   -0.71285E-02    24   0.252E+00    0.237E-02
RMM:   2    -0.633354624645E+00   -0.10149E-03   -0.96096E-04    16   0.261E-01    0.708E-03
RMM:   3    -0.633360644601E+00   -0.60200E-05   -0.25141E-05    12   0.383E-02
   4 F= -.63336064E+00 E0= -.32653233E+00  d E =-.283401E-04
       N       E                     dE             d eps       ncg     rms          rms(c)
DAV:   1    -0.632883458929E+00    0.47117E-03   -0.50582E-01    24   0.672E+00    0.690E-02
RMM:   2    -0.633520086506E+00   -0.63663E-03   -0.67865E-03    20   0.696E-01    0.178E-02
RMM:   3    -0.633524548733E+00   -0.44622E-05   -0.90162E-05    12   0.710E-02
   5 F= -.63352455E+00 E0= -.32677841E+00  d E =-.163904E-03
