<?xml version="1.0" encoding="ISO-8859-1"?>
<modeling>
 <generator>
  <i name="program" type="string">vasp </i>
  <i name="version" type="string">5.3.3  </i>
  <i name="subversion" type="string">18Dez12 (build Sep  7 2015 22:32:56) complex                          parallel </i>
  <i name="platform" type="string">LinuxIFC </i>
  <i name="date" type="string">2022 12 22 </i>
  <i name="time" type="string">19:39:58 </i>
 </generator>
 <incar>
  <i type="string" name="SYSTEM"> O2</i>
  <i type="string" name="PREC">normal</i>
  <i type="string" name="ALGO"> fast    ! algorithm for electronic opti</i>
  <i type="int" name="IBRION">     1</i>
  <i name="EDIFF">      0.00010000</i>
  <i name="EDIFFG">     -0.01000000</i>
  <i type="int" name="NSW">   300</i>
  <i name="ENCUT">    400.00000000</i>
  <i type="int" name="ISMEAR">     0</i>
  <i type="logical" name="LWAVE"> F  </i>
  <i type="logical" name="LCHARG"> F  </i>
 </incar>
 <kpoints>
  <generation param="Gamma">
   <v type="int" name="divisions">       1        1        1 </v>
   <v name="usershift">      0.00000000       0.00000000       0.00000000 </v>
   <v name="genvec1">      1.00000000       0.00000000       0.00000000 </v>
   <v name="genvec2">      0.00000000       1.00000000       0.00000000 </v>
   <v name="genvec3">      0.00000000       0.00000000       1.00000000 </v>
   <v name="shift">      0.00000000       0.00000000       0.00000000 </v>
  </generation>
  <varray name="kpointlist" >
   <v>       0.00000000       0.00000000       0.00000000 </v>
  </varray>
  <varray name="weights" >
   <v>       1.00000000 </v>
  </varray>
 </kpoints>
 <parameters>
  <separator name="general" >
   <i type="string" name="SYSTEM">O2</i>
   <i type="logical" name="LCOMPAT"> F  </i>
  </separator>
  <separator name="electronic" >
   <i type="string" name="PREC">normal</i>
   <i name="ENMAX">    400.00000000</i>
   <i name="ENAUG">    605.39200000</i>
   <i name="EDIFF">      0.00010000</i>
   <i type="int" name="IALGO">    68</i>
   <i type="int" name="IWAVPR">    11</i>
   <i type="int" name="NBANDS">    10</i>
   <i name="NELECT">     12.00000000</i>
   <i type="int" name="TURBO">     0</i>
   <i type="int" name="IRESTART">     0</i>
   <i type="int" name="NREBOOT">     0</i>
   <i type="int" name="NMIN">     0</i>
   <i name="EREF">      0.00000000</i>
   <separator name="electronic smearing" >
    <i type="int" name="ISMEAR">     0</i>
    <i name="SIGMA">      0.20000000</i>
    <i name="KSPACING">      0.50000000</i>
    <i type="logical" name="KGAMMA"> T  </i>
   </separator>
   <separator name="electronic projectors" >
    <i type="logical" name="LREAL"> F  </i>
    <v name="ROPT">      0.00000000</v>
    <i type="int" name="LMAXPAW">  -100</i>
    <i type="int" name="LMAXMIX">     2</i>
    <i type="logical" name="NLSPLINE"> F  </i>
   </separator>
   <separator name="electronic startup" >
    <i type="int" name="ISTART">     0</i>
    <i type="int" name="ICHARG">     2</i>
    <i type="int" name="INIWAV">     1</i>
   </separator>
   <separator name="electronic spin" >
    <i type="int" name="ISPIN">     1</i>
    <i type="logical" name="LNONCOLLINEAR"> F  </i>
    <v name="MAGMOM">      1.00000000      1.00000000</v>
    <i name="NUPDOWN">     -1.00000000</i>
    <i type="logical" name="LSORBIT"> F  </i>
    <v name="SAXIS">      0.00000000      0.00000000      1.00000000</v>
    <i type="logical" name="LSPIRAL"> F  </i>
    <v name="QSPIRAL">      0.00000000      0.00000000      0.00000000</v>
    <i type="logical" name="LZEROZ"> F  </i>
   </separator>
   <separator name="electronic exchange-correlation" >
    <i type="logical" name="LASPH"> F  </i>
    <i type="logical" name="LMETAGGA"> F  </i>
   </separator>
   <separator name="electronic convergence" >
    <i type="int" name="NELM">    60</i>
    <i type="int" name="NELMDL">    -5</i>
    <i type="int" name="NELMIN">     2</i>
    <i name="ENINI">    400.00000000</i>
    <separator name="electronic convergence detail" >
     <i type="logical" name="LDIAG"> T  </i>
     <i type="logical" name="LSUBROT"> T  </i>
     <i name="WEIMIN">      0.00100000</i>
     <i name="EBREAK">      0.00000250</i>
     <i name="DEPER">      0.30000000</i>
     <i type="int" name="NRMM">     4</i>
     <i name="TIME">      0.40000000</i>
    </separator>
   </separator>
   <separator name="electronic mixer" >
    <i name="AMIX">      0.40000000</i>
    <i name="BMIX">      1.00000000</i>
    <i name="AMIN">      0.10000000</i>
    <i name="AMIX_MAG">      1.60000000</i>
    <i name="BMIX_MAG">      1.00000000</i>
    <separator name="electronic mixer details" >
     <i type="int" name="IMIX">     4</i>
     <i type="int" name="MAXMIX">   -45</i>
     <i name="WC">    100.00000000</i>
     <i type="int" name="INIMIX">     1</i>
     <i type="int" name="MIXPRE">     1</i>
     <i type="int" name="MREMOVE">     5</i>
    </separator>
   </separator>
   <separator name="electronic dipolcorrection" >
    <i type="logical" name="LDIPOL"> F  </i>
    <i type="logical" name="LMONO"> F  </i>
    <i type="int" name="IDIPOL">     0</i>
    <i name="EPSILON">      1.00000000</i>
    <v name="DIPOL">   -100.00000000   -100.00000000   -100.00000000</v>
    <i name="EFIELD">      0.00000000</i>
   </separator>
  </separator>
  <separator name="grids" >
   <i type="int" name="NGX">    50</i>
   <i type="int" name="NGY">    50</i>
   <i type="int" name="NGZ">    54</i>
   <i type="int" name="NGXF">   100</i>
   <i type="int" name="NGYF">   100</i>
   <i type="int" name="NGZF">   108</i>
   <i type="logical" name="ADDGRID"> F  </i>
  </separator>
  <separator name="ionic" >
   <i type="int" name="NSW">   300</i>
   <i type="int" name="IBRION">     1</i>
   <i type="int" name="ISIF">     2</i>
   <i name="PSTRESS">      0.00000000</i>
   <i name="EDIFFG">     -0.01000000</i>
   <i type="int" name="NFREE">     0</i>
   <i name="POTIM">      0.50000000</i>
   <i name="SMASS">     -3.00000000</i>
   <i name="SCALEE">      1.00000000</i>
  </separator>
  <separator name="ionic md" >
   <i name="TEBEG">      0.00010000</i>
   <i name="TEEND">      0.00010000</i>
   <i type="int" name="NBLOCK">     1</i>
   <i type="int" name="KBLOCK">   300</i>
   <i type="int" name="NPACO">   256</i>
   <i name="APACO">     16.00000000</i>
  </separator>
  <separator name="symmetry" >
   <i type="int" name="ISYM">     2</i>
   <i name="SYMPREC">      0.00001000</i>
  </separator>
  <separator name="dos" >
   <i type="logical" name="LORBIT"> F  </i>
   <v name="RWIGS">     -1.00000000</v>
   <i type="int" name="NEDOS">   301</i>
   <i name="EMIN">     10.00000000</i>
   <i name="EMAX">    -10.00000000</i>
   <i name="EFERMI">      0.00000000</i>
  </separator>
  <separator name="writing" >
   <i type="int" name="NWRITE">     2</i>
   <i type="logical" name="LWAVE"> F  </i>
   <i type="logical" name="LCHARG"> F  </i>
   <i type="logical" name="LPARD"> F  </i>
   <i type="logical" name="LVTOT"> F  </i>
   <i type="logical" name="LVHAR"> F  </i>
   <i type="logical" name="LELF"> F  </i>
   <i type="logical" name="LOPTICS"> F  </i>
   <v name="STM">      0.00000000      0.00000000      0.00000000      0.00000000      0.00000000      0.00000000      0.00000000</v>
  </separator>
  <separator name="performance" >
   <i type="int" name="NPAR">     1</i>
   <i type="int" name="NSIM">     4</i>
   <i type="int" name="NBLK">    -1</i>
   <i type="logical" name="LPLANE"> T  </i>
   <i type="logical" name="LSCALAPACK"> F  </i>
   <i type="logical" name="LSCAAWARE"> F  </i>
   <i type="logical" name="LSCALU"> F  </i>
   <i type="logical" name="LASYNC"> F  </i>
   <i type="logical" name="LORBITALREAL"> F  </i>
  </separator>
  <separator name="miscellaneous" >
   <i type="int" name="IDIOT">     3</i>
   <i type="logical" name="LMUSIC"> F  </i>
   <v name="POMASS">     16.00000000</v>
   <v name="DARWINR">      0.00000000</v>
   <v name="DARWINV">      1.00000000</v>
   <i type="logical" name="LCORR"> T  </i>
  </separator>
  <i type="logical" name="GGA_COMPAT"> T  </i>
  <i type="logical" name="LBERRY"> F  </i>
  <i type="int" name="ICORELEVEL">     0</i>
  <i type="logical" name="LDAU"> F  </i>
  <i type="int" name="I_CONSTRAINED_M">     0</i>
  <separator name="electronic exchange-correlation" >
   <i type="string" name="GGA">--</i>
   <i type="int" name="VOSKOWN">     0</i>
   <i type="logical" name="LHFCALC"> F  </i>
   <i type="string" name="PRECFOCK"></i>
   <i type="logical" name="LSYMGRAD"> F  </i>
   <i type="logical" name="LHFONE"> F  </i>
   <i type="logical" name="LRHFCALC"> F  </i>
   <i type="logical" name="LTHOMAS"> F  </i>
   <i type="logical" name="LMODELHF"> F  </i>
   <i name="ENCUT4O">     -1.00000000</i>
   <i type="int" name="EXXOEP">     0</i>
   <i type="int" name="FOURORBIT">     0</i>
   <i name="AEXX">      0.00000000</i>
   <i name="HFALPHA">      0.00000000</i>
   <i name="MCALPHA">      0.00000000</i>
   <i name="ALDAX">      1.00000000</i>
   <i name="AGGAX">      1.00000000</i>
   <i name="ALDAC">      1.00000000</i>
   <i name="AGGAC">      1.00000000</i>
   <i type="int" name="NKREDX">     1</i>
   <i type="int" name="NKREDY">     1</i>
   <i type="int" name="NKREDZ">     1</i>
   <i type="logical" name="SHIFTRED"> F  </i>
   <i type="logical" name="ODDONLY"> F  </i>
   <i type="logical" name="EVENONLY"> F  </i>
   <i type="int" name="LMAXFOCK">     0</i>
   <i type="int" name="NMAXFOCKAE">     0</i>
   <i type="logical" name="LFOCKAEDFT"> F  </i>
   <i name="HFSCREEN">      0.00000000</i>
   <i name="HFSCREENC">      0.00000000</i>
   <i type="int" name="NBANDSGWLOW">     0</i>
  </separator>
  <separator name="vdW DFT" >
   <i type="logical" name="LUSE_VDW"> F  </i>
   <i name="Zab_VDW">     -0.84910000</i>
   <i name="PARAM1">      0.12340000</i>
   <i name="PARAM2">      1.00000000</i>
   <i name="PARAM3">      0.00000000</i>
  </separator>
  <separator name="model GW" >
   <i type="int" name="MODEL_GW">     0</i>
   <i name="MODEL_EPS0">    327.69450000</i>
   <i name="MODEL_ALPHA">      1.00000000</i>
  </separator>
  <separator name="linear response parameters" >
   <i type="logical" name="LEPSILON"> F  </i>
   <i type="logical" name="LRPA"> F  </i>
   <i type="logical" name="LNABLA"> F  </i>
   <i type="logical" name="LVEL"> F  </i>
   <i type="int" name="KINTER">     0</i>
   <i name="CSHIFT">      0.10000000</i>
   <i name="OMEGAMAX">     -1.00000000</i>
   <i name="DEG_THRESHOLD">      0.00200000</i>
  </separator>
  <separator name="orbital magnetization" >
   <i type="logical" name="NUCIND"> F  </i>
   <v name="MAGPOS">      0.00000000      0.00000000      0.00000000</v>
   <i type="logical" name="LNICSALL"> T  </i>
   <i type="logical" name="ORBITALMAG"> F  </i>
   <i type="logical" name="LMAGBLOCH"> F  </i>
   <i type="logical" name="LCHIMAG"> F  </i>
   <i type="logical" name="LGAUGE"> T  </i>
   <i type="int" name="MAGATOM">     0</i>
   <v name="MAGDIPOL">      0.00000000      0.00000000      0.00000000</v>
   <v name="AVECCONST">      0.00000000      0.00000000      0.00000000</v>
  </separator>
  <separator name="response functions" >
   <i type="logical" name="LADDER"> F  </i>
   <i type="logical" name="LFXC"> F  </i>
   <i type="logical" name="LHARTREE"> T  </i>
   <i type="int" name="IBSE">     0</i>
   <i type="logical" name="LTCTE"> F  </i>
   <i type="logical" name="LTETE"> F  </i>
   <i type="logical" name="LTRIPLET"> F  </i>
   <i type="logical" name="LFXCEPS"> F  </i>
   <i type="logical" name="L2ORDER"> F  </i>
   <i type="logical" name="LUSEW"> F  </i>
   <i name="ENCUTGW">     -2.00000000</i>
   <i name="ENCUTGWSOFT">     -2.00000000</i>
   <i name="ENCUTLF">     -1.00000000</i>
   <i type="int" name="LMAXMP2">    -1</i>
   <i name="SCISSOR">      0.00000000</i>
   <i type="int" name="NOMEGA">     0</i>
   <i type="int" name="NOMEGAR">     0</i>
   <i type="int" name="NBANDSGW">    -1</i>
   <i type="int" name="NBANDSO">    -1</i>
   <i type="int" name="NBANDSV">    -1</i>
   <i type="int" name="NELM">     1</i>
   <i type="int" name="DIM">     3</i>
   <i type="int" name="ANTIRES">     0</i>
   <i name="OMEGAMAX">    -30.00000000</i>
   <i name="OMEGATL">   -200.00000000</i>
   <i type="int" name="OMEGAGRID">     0</i>
   <i name="CSHIFT">     -0.10000000</i>
   <i type="logical" name="SELFENERGY"> F  </i>
   <i type="logical" name="LSPECTRAL"> F  </i>
   <i type="logical" name="ODDONLYGW"> F  </i>
   <i type="logical" name="EVENONLYGW"> F  </i>
   <i type="int" name="NKREDLFX">     1</i>
   <i type="int" name="NKREDLFY">     1</i>
   <i type="int" name="NKREDLFZ">     1</i>
   <i type="int" name="MAXMEM">  1800</i>
   <i type="int" name="TELESCOPE">     0</i>
  </separator>
 </parameters>
 <atominfo>
  <atoms>       2 </atoms>
  <types>       1 </types>
  <array name="atoms" >
   <dimension dim="1">ion</dimension>
   <field type="string">element</field>
   <field type="int">atomtype</field>
   <set>
    <rc><c>O </c><c>   1</c></rc>
    <rc><c>O </c><c>   1</c></rc>
   </set>
  </array>
  <array name="atomtypes" >
   <dimension dim="1">type</dimension>
   <field type="int">atomspertype</field>
   <field type="string">element</field>
   <field>mass</field>
   <field>valence</field>
   <field type="string">pseudopotential</field>
   <set>
    <rc><c>   2</c><c>O </c><c>     16.00000000</c><c>      6.00000000</c><c>   PAW_PBE O 08Apr2002                  </c></rc>
   </set>
  </array>
 </atominfo>
 <structure name="initialpos" >
  <crystal>
   <varray name="basis" >
    <v>      10.10000000       0.00000000       0.00000000 </v>
    <v>       0.00000000      10.30000000       0.00000000 </v>
    <v>       0.00000000       0.00000000      10.50000000 </v>
   </varray>
   <i name="volume">   1092.31500000 </i>
   <varray name="rec_basis" >
    <v>       0.09900990       0.00000000       0.00000000 </v>
    <v>       0.00000000       0.09708738       0.00000000 </v>
    <v>       0.00000000       0.00000000       0.09523810 </v>
   </varray>
  </crystal>
  <varray name="positions" >
   <v>       0.00000000       0.00000000       0.00000000 </v>
   <v>       0.00000000       0.00000000       0.19047619 </v>
  </varray>
  <varray name="selective"  type="logical" >
   <v type="logical" >  F  F  T </v>
   <v type="logical" >  F  F  T </v>
  </varray>
  <nose>
   <v>      -3.00000000       0.00000000       0.00010000       0.00010000 </v>
  </nose>
 </structure>
 <calculation>
  <scstep>
   <time name="dav">    0.40    0.41</time>
   <time name="total">    1.23    1.24</time>
   <energy>
    <i name="alphaZ">      0.50884390 </i>
    <i name="ewald">    -22.48317234 </i>
    <i name="hartreedc">   -723.89779174 </i>
    <i name="XCdc">     52.43163882 </i>
    <i name="pawpsdc">    693.09895378 </i>
    <i name="pawaedc">   -696.69629511 </i>
    <i name="eentropy">     -0.04955988 </i>
    <i name="bandstr">    -86.83165755 </i>
    <i name="atom">    864.52639207 </i>
    <i name="e_fr_energy">     80.60735195 </i>
    <i name="e_wo_entrp">     80.65691183 </i>
    <i name="e_0_energy">     80.63213189 </i>
   </energy>
  </scstep>
  <scstep>
   <time name="dav">    0.50    0.51</time>
   <time name="total">    0.51    0.51</time>
   <energy>
    <i name="e_fr_energy">     10.36697437 </i>
    <i name="e_wo_entrp">     10.36698087 </i>
    <i name="e_0_energy">     10.36697762 </i>
   </energy>
  </scstep>
  <scstep>
   <time name="dav">    0.44    0.44</time>
   <time name="total">    0.44    0.44</time>
   <energy>
    <i name="e_fr_energy">     -3.90111619 </i>
    <i name="e_wo_entrp">     -3.67890052 </i>
    <i name="e_0_energy">     -3.79000835 </i>
   </energy>
  </scstep>
  <scstep>
   <time name="dav">    0.35    0.35</time>
   <time name="total">    0.35    0.35</time>
   <energy>
    <i name="e_fr_energy">     -4.05984800 </i>
    <i name="e_wo_entrp">     -3.83417435 </i>
    <i name="e_0_energy">     -3.94701117 </i>
   </energy>
  </scstep>
  <scstep>
   <time name="dav">    0.44    0.44</time>
   <time name="total">    0.54    0.54</time>
   <energy>
    <i name="e_fr_energy">     -4.06348565 </i>
    <i name="e_wo_entrp">     -3.83781004 </i>
    <i name="e_0_energy">     -3.95064785 </i>
   </energy>
  </scstep>
  <scstep>
   <time name="diag">    0.07    0.07</time>
   <time name="diis">    0.27    0.27</time>
   <time name="orth">    0.00    0.00</time>
   <time name="total">    1.18    1.18</time>
   <energy>
    <i name="e_fr_energy">     -3.92522333 </i>
    <i name="e_wo_entrp">     -3.69954754 </i>
    <i name="e_0_energy">     -3.81238544 </i>
   </energy>
  </scstep>
  <scstep>
   <time name="diag">    0.07    0.07</time>
   <time name="diis">    0.27    0.27</time>
   <time name="orth">    0.00    0.00</time>
   <time name="total">    1.18    1.18</time>
   <energy>
    <i name="e_fr_energy">     -3.90011672 </i>
    <i name="e_wo_entrp">     -3.67444257 </i>
    <i name="e_0_energy">     -3.78727965 </i>
   </energy>
  </scstep>
  <scstep>
   <time name="diag">    0.07    0.07</time>
   <time name="diis">    0.27    0.27</time>
   <time name="orth">    0.00    0.00</time>
   <time name="total">    1.20    1.20</time>
   <energy>
    <i name="e_fr_energy">     -3.89854773 </i>
    <i name="e_wo_entrp">     -3.67287263 </i>
    <i name="e_0_energy">     -3.78571018 </i>
   </energy>
  </scstep>
  <scstep>
   <time name="diag">    0.07    0.07</time>
   <time name="diis">    0.23    0.23</time>
   <time name="orth">    0.00    0.00</time>
   <time name="total">    1.16    1.16</time>
   <energy>
    <i name="e_fr_energy">     -3.89885128 </i>
    <i name="e_wo_entrp">     -3.67317700 </i>
    <i name="e_0_energy">     -3.78601414 </i>
   </energy>
  </scstep>
  <scstep>
   <time name="diag">    0.07    0.07</time>
   <time name="diis">    0.19    0.19</time>
   <time name="orth">    0.01    0.00</time>
   <time name="total">    1.13    1.13</time>
   <energy>
    <i name="e_fr_energy">     -3.89945381 </i>
    <i name="e_wo_entrp">     -3.67377824 </i>
    <i name="e_0_energy">     -3.78661602 </i>
   </energy>
  </scstep>
  <scstep>
   <time name="diag">    0.07    0.07</time>
   <time name="diis">    0.18    0.18</time>
   <time name="orth">    0.00    0.00</time>
   <time name="total">    1.13    1.13</time>
   <energy>
    <i name="e_fr_energy">     -3.89998548 </i>
    <i name="e_wo_entrp">     -3.67430984 </i>
    <i name="e_0_energy">     -3.78714766 </i>
   </energy>
  </scstep>
  <scstep>
   <time name="diag">    0.07    0.07</time>
   <time name="diis">    0.18    0.19</time>
   <time name="orth">    0.00    0.00</time>
   <time name="total">    1.14    1.14</time>
   <energy>
    <i name="e_fr_energy">     -3.90066250 </i>
    <i name="e_wo_entrp">     -3.67498699 </i>
    <i name="e_0_energy">     -3.78782474 </i>
   </energy>
  </scstep>
  <scstep>
   <time name="diag">    0.07    0.07</time>
   <time name="diis">    0.16    0.16</time>
   <time name="orth">    0.00    0.00</time>
   <time name="total">    1.13    1.13</time>
   <energy>
    <i name="e_fr_energy">     -3.90086954 </i>
    <i name="e_wo_entrp">     -3.67519394 </i>
    <i name="e_0_energy">     -3.78803174 </i>
   </energy>
  </scstep>
  <scstep>
   <time name="diag">    0.07    0.07</time>
   <time name="diis">    0.18    0.18</time>
   <time name="orth">    0.00    0.00</time>
   <time name="total">    1.16    1.16</time>
   <energy>
    <i name="e_fr_energy">     -3.90099993 </i>
    <i name="e_wo_entrp">     -3.67532433 </i>
    <i name="e_0_energy">     -3.78816213 </i>
   </energy>
  </scstep>
  <scstep>
   <time name="diag">    0.07    0.07</time>
   <time name="diis">    0.16    0.17</time>
   <time name="orth">    0.00    0.00</time>
   <time name="total">    1.04    1.04</time>
   <energy>
    <i name="alphaZ">      0.50884390 </i>
    <i name="ewald">    -22.48317234 </i>
    <i name="hartreedc">   -720.62206593 </i>
    <i name="XCdc">     52.23208062 </i>
    <i name="pawpsdc">    713.09879871 </i>
    <i name="pawaedc">   -716.46209698 </i>
    <i name="eentropy">     -0.22567561 </i>
    <i name="bandstr">   -174.47414296 </i>
    <i name="atom">    864.52639207 </i>
    <i name="e_fr_energy">     -3.90103851 </i>
    <i name="e_wo_entrp">     -3.67536290 </i>
    <i name="e_0_energy">     -3.78820071 </i>
   </energy>
  </scstep>
  <structure>
   <crystal>
    <varray name="basis" >
     <v>      10.10000000       0.00000000       0.00000000 </v>
     <v>       0.00000000      10.30000000       0.00000000 </v>
     <v>       0.00000000       0.00000000      10.50000000 </v>
    </varray>
    <i name="volume">   1092.31500000 </i>
    <varray name="rec_basis" >
     <v>       0.09900990       0.00000000       0.00000000 </v>
     <v>       0.00000000       0.09708738       0.00000000 </v>
     <v>       0.00000000       0.00000000       0.09523810 </v>
    </varray>
   </crystal>
   <varray name="positions" >
    <v>       0.00000000       0.00000000       0.00000000 </v>
    <v>       0.00000000       0.00000000       0.19047619 </v>
   </varray>
  </structure>
  <varray name="forces" >
   <v>       0.00000000       0.00000000       5.87884175 </v>
   <v>       0.00000000       0.00000000      -5.87884175 </v>
  </varray>
  <varray name="stress" >
   <v>      -2.40908337       0.00000000       0.00000000 </v>
   <v>       0.00000000      -2.31658017       0.00000000 </v>
   <v>       0.00000000       0.00000000     -19.01481283 </v>
  </varray>
  <energy>
   <i name="e_fr_energy">     -3.90103851 </i>
   <i name="e_wo_entrp">     -3.78820071 </i>
   <i name="e_0_energy">     -0.22567561 </i>
  </energy>
  <time name="totalsc">   17.04   17.07</time>
 </calculation>
 <calculation>
  <scstep>
   <time name="dav">    0.32    0.32</time>
   <time name="total">    1.20    1.20</time>
   <energy>
    <i name="alphaZ">      0.50884390 </i>
    <i name="ewald">     78.20315262 </i>
    <i name="hartreedc">   -811.41582598 </i>
    <i name="XCdc">     53.18721665 </i>
    <i name="pawpsdc">    713.09346250 </i>
    <i name="pawaedc">   -716.45668800 </i>
    <i name="eentropy">     -0.22567526 </i>
    <i name="bandstr">   -187.34303499 </i>
    <i name="atom">    864.52639207 </i>
    <i name="e_fr_energy">     -5.92215651 </i>
    <i name="e_wo_entrp">     -5.69648125 </i>
    <i name="e_0_energy">     -5.80931888 </i>
   </energy>
  </scstep>
  <scstep>
   <time name="diag">    0.07    0.07</time>
   <time name="diis">    0.27    0.27</time>
   <time name="orth">    0.00    0.00</time>
   <time name="total">    1.07    1.07</time>
   <energy>
    <i name="e_fr_energy">     -8.21656597 </i>
    <i name="e_wo_entrp">     -7.99089015 </i>
    <i name="e_0_energy">     -8.10372806 </i>
   </energy>
  </scstep>
  <scstep>
   <time name="diag">    0.07    0.07</time>
   <time name="diis">    0.27    0.27</time>
   <time name="orth">    0.00    0.00</time>
   <time name="total">    1.10    1.11</time>
   <energy>
    <i name="e_fr_energy">     -8.15830107 </i>
    <i name="e_wo_entrp">     -7.93262581 </i>
    <i name="e_0_energy">     -8.04546344 </i>
   </energy>
  </scstep>
  <scstep>
   <time name="diag">    0.07    0.07</time>
   <time name="diis">    0.27    0.27</time>
   <time name="orth">    0.00    0.00</time>
   <time name="total">    1.22    1.22</time>
   <energy>
    <i name="e_fr_energy">     -8.07386207 </i>
    <i name="e_wo_entrp">     -7.84818812 </i>
    <i name="e_0_energy">     -7.96102510 </i>
   </energy>
  </scstep>
  <scstep>
   <time name="diag">    0.07    0.07</time>
   <time name="diis">    0.27    0.27</time>
   <time name="orth">    0.00    0.00</time>
   <time name="total">    1.22    1.22</time>
   <energy>
    <i name="e_fr_energy">     -8.07567811 </i>
    <i name="e_wo_entrp">     -7.85000828 </i>
    <i name="e_0_energy">     -7.96284319 </i>
   </energy>
  </scstep>
  <scstep>
   <time name="diag">    0.07    0.07</time>
   <time name="diis">    0.27    0.27</time>
   <time name="orth">    0.00    0.00</time>
   <time name="total">    1.21    1.21</time>
   <energy>
    <i name="e_fr_energy">     -8.07051639 </i>
    <i name="e_wo_entrp">     -7.84484438 </i>
    <i name="e_0_energy">     -7.95768039 </i>
   </energy>
  </scstep>
  <scstep>
   <time name="diag">    0.07    0.07</time>
   <time name="diis">    0.25    0.25</time>
   <time name="orth">    0.00    0.00</time>
   <time name="total">    1.19    1.19</time>
   <energy>
    <i name="e_fr_energy">     -8.07013677 </i>
    <i name="e_wo_entrp">     -7.84446236 </i>
    <i name="e_0_energy">     -7.95729957 </i>
   </energy>
  </scstep>
  <scstep>
   <time name="diag">    0.07    0.07</time>
   <time name="diis">    0.27    0.27</time>
   <time name="orth">    0.00    0.00</time>
   <time name="total">    1.21    1.21</time>
   <energy>
    <i name="e_fr_energy">     -8.07003160 </i>
    <i name="e_wo_entrp">     -7.84435601 </i>
    <i name="e_0_energy">     -7.95719380 </i>
   </energy>
  </scstep>
  <scstep>
   <time name="diag">    0.06    0.07</time>
   <time name="diis">    0.18    0.18</time>
   <time name="orth">    0.00    0.00</time>
   <time name="total">    1.11    1.12</time>
   <energy>
    <i name="e_fr_energy">     -8.07031269 </i>
    <i name="e_wo_entrp">     -7.84463718 </i>
    <i name="e_0_energy">     -7.95747494 </i>
   </energy>
  </scstep>
  <scstep>
   <time name="diag">    0.07    0.07</time>
   <time name="diis">    0.24    0.24</time>
   <time name="orth">    0.00    0.00</time>
   <time name="total">    1.16    1.17</time>
   <energy>
    <i name="e_fr_energy">     -8.07076971 </i>
    <i name="e_wo_entrp">     -7.84509421 </i>
    <i name="e_0_energy">     -7.95793196 </i>
   </energy>
  </scstep>
  <scstep>
   <time name="diag">    0.07    0.07</time>
   <time name="diis">    0.18    0.18</time>
   <time name="orth">    0.00    0.00</time>
   <time name="total">    1.12    1.12</time>
   <energy>
    <i name="e_fr_energy">     -8.07089200 </i>
    <i name="e_wo_entrp">     -7.84521651 </i>
    <i name="e_0_energy">     -7.95805425 </i>
   </energy>
  </scstep>
  <scstep>
   <time name="diag">    0.06    0.07</time>
   <time name="diis">    0.18    0.18</time>
   <time name="orth">    0.00    0.00</time>
   <time name="total">    0.99    0.99</time>
   <energy>
    <i name="alphaZ">      0.50884390 </i>
    <i name="ewald">     78.20315262 </i>
    <i name="hartreedc">   -817.83570261 </i>
    <i name="XCdc">     53.68811615 </i>
    <i name="pawpsdc">    793.11141408 </i>
    <i name="pawaedc">   -796.45016611 </i>
    <i name="eentropy">     -0.22567550 </i>
    <i name="bandstr">   -183.59734783 </i>
    <i name="atom">    864.52639207 </i>
    <i name="e_fr_energy">     -8.07097324 </i>
    <i name="e_wo_entrp">     -7.84529774 </i>
    <i name="e_0_energy">     -7.95813549 </i>
   </energy>
  </scstep>
  <structure>
   <crystal>
    <varray name="basis" >
     <v>      10.10000000       0.00000000       0.00000000 </v>
     <v>       0.00000000      10.30000000       0.00000000 </v>
     <v>       0.00000000       0.00000000      10.50000000 </v>
    </varray>
    <i name="volume">   1092.31500000 </i>
    <varray name="rec_basis" >
     <v>       0.09900990       0.00000000       0.00000000 </v>
     <v>       0.00000000       0.09708738       0.00000000 </v>
     <v>       0.00000000       0.00000000       0.09523810 </v>
    </varray>
   </crystal>
   <varray name="positions" >
    <v>       0.00000000       0.00000000       0.02701056 </v>
    <v>       0.00000000       0.00000000       0.16346563 </v>
   </varray>
  </structure>
  <varray name="forces" >
   <v>       0.00000000       0.00000000       7.20018140 </v>
   <v>       0.00000000       0.00000000      -7.20018140 </v>
  </varray>
  <varray name="stress" >
   <v>      -2.28066881       0.00000000       0.00000000 </v>
   <v>       0.00000000      -2.20429732       0.00000000 </v>
   <v>       0.00000000       0.00000000     -16.74946678 </v>
  </varray>
  <energy>
   <i name="e_fr_energy">     -8.07097324 </i>
   <i name="e_wo_entrp">     -7.95813549 </i>
   <i name="e_0_energy">     -0.22567550 </i>
  </energy>
  <time name="totalsc">   16.26   16.28</time>
 </calculation>
 <calculation>
  <scstep>
   <time name="dav">    0.42    0.43</time>
   <time name="total">    1.28    1.28</time>
   <energy>
    <i name="alphaZ">      0.50884390 </i>
    <i name="ewald">   -146.38710983 </i>
    <i name="hartreedc">   -600.18196211 </i>
    <i name="XCdc">     52.45212677 </i>
    <i name="pawpsdc">    793.09655796 </i>
    <i name="pawaedc">   -796.43513771 </i>
    <i name="eentropy">     -0.22564017 </i>
    <i name="bandstr">   -109.62955190 </i>
    <i name="atom">    864.52639207 </i>
    <i name="e_fr_energy">     57.72451899 </i>
    <i name="e_wo_entrp">     57.95015916 </i>
    <i name="e_0_energy">     57.83733907 </i>
   </energy>
  </scstep>
  <scstep>
   <time name="diag">    0.07    0.07</time>
   <time name="diis">    0.38    0.38</time>
   <time name="orth">    0.00    0.00</time>
   <time name="total">    1.22    1.22</time>
   <energy>
    <i name="e_fr_energy">      1.76678215 </i>
    <i name="e_wo_entrp">      1.96282785 </i>
    <i name="e_0_energy">      1.86480500 </i>
   </energy>
  </scstep>
  <scstep>
   <time name="diag">    0.07    0.07</time>
   <time name="diis">    0.28    0.28</time>
   <time name="orth">    0.00    0.00</time>
   <time name="total">    1.14    1.14</time>
   <energy>
    <i name="e_fr_energy">     -6.38283828 </i>
    <i name="e_wo_entrp">     -5.93136962 </i>
    <i name="e_0_energy">     -6.15710395 </i>
   </energy>
  </scstep>
  <scstep>
   <time name="diag">    0.06    0.07</time>
   <time name="diis">    0.26    0.26</time>
   <time name="orth">    0.00    0.00</time>
   <time name="total">    1.12    1.13</time>
   <energy>
    <i name="e_fr_energy">     -5.19412804 </i>
    <i name="e_wo_entrp">     -4.58408483 </i>
    <i name="e_0_energy">     -4.88910644 </i>
   </energy>
  </scstep>
  <scstep>
   <time name="diag">    0.06    0.07</time>
   <time name="diis">    0.26    0.26</time>
   <time name="orth">    0.00    0.00</time>
   <time name="total">    1.13    1.13</time>
   <energy>
    <i name="e_fr_energy">     -4.13548177 </i>
    <i name="e_wo_entrp">     -3.52088533 </i>
    <i name="e_0_energy">     -3.82818355 </i>
   </energy>
  </scstep>
  <scstep>
   <time name="diag">    0.07    0.07</time>
   <time name="diis">    0.26    0.26</time>
   <time name="orth">    0.00    0.00</time>
   <time name="total">    1.14    1.14</time>
   <energy>
    <i name="e_fr_energy">     -2.76482293 </i>
    <i name="e_wo_entrp">     -2.15002678 </i>
    <i name="e_0_energy">     -2.45742485 </i>
   </energy>
  </scstep>
  <scstep>
   <time name="diag">    0.06    0.07</time>
   <time name="diis">    0.26    0.26</time>
   <time name="orth">    0.00    0.00</time>
   <time name="total">    1.17    1.17</time>
   <energy>
    <i name="e_fr_energy">     -0.52402539 </i>
    <i name="e_wo_entrp">      0.08947895 </i>
    <i name="e_0_energy">     -0.21727322 </i>
   </energy>
  </scstep>
  <scstep>
   <time name="diag">    0.07    0.07</time>
   <time name="diis">    0.26    0.26</time>
   <time name="orth">    0.00    0.00</time>
   <time name="total">    1.24    1.24</time>
   <energy>
    <i name="e_fr_energy">     -0.61171458 </i>
    <i name="e_wo_entrp">     -0.00120072 </i>
    <i name="e_0_energy">     -0.30645765 </i>
   </energy>
  </scstep>
  <scstep>
   <time name="diag">    0.07    0.07</time>
   <time name="diis">    0.26    0.26</time>
   <time name="orth">    0.00    0.00</time>
   <time name="total">    1.26    1.26</time>
   <energy>
    <i name="e_fr_energy">     -0.61879937 </i>
    <i name="e_wo_entrp">     -0.00509975 </i>
    <i name="e_0_energy">     -0.31194956 </i>
   </energy>
  </scstep>
  <scstep>
   <time name="diag">    0.07    0.07</time>
   <time name="diis">    0.26    0.26</time>
   <time name="orth">    0.00    0.00</time>
   <time name="total">    1.27    1.27</time>
   <energy>
    <i name="e_fr_energy">     -0.62098531 </i>
    <i name="e_wo_entrp">     -0.00777761 </i>
    <i name="e_0_energy">     -0.31438146 </i>
   </energy>
  </scstep>
  <scstep>
   <time name="diag">    0.07    0.07</time>
   <time name="diis">    0.25    0.26</time>
   <time name="orth">    0.00    0.00</time>
   <time name="total">    1.25    1.25</time>
   <energy>
    <i name="e_fr_energy">     -0.62805765 </i>
    <i name="e_wo_entrp">     -0.01421547 </i>
    <i name="e_0_energy">     -0.32113656 </i>
   </energy>
  </scstep>
  <scstep>
   <time name="diag">    0.06    0.07</time>
   <time name="diis">    0.26    0.26</time>
   <time name="orth">    0.00    0.00</time>
   <time name="total">    1.24    1.24</time>
   <energy>
    <i name="e_fr_energy">     -0.62822300 </i>
    <i name="e_wo_entrp">     -0.01455568 </i>
    <i name="e_0_energy">     -0.32138934 </i>
   </energy>
  </scstep>
  <scstep>
   <time name="diag">    0.06    0.07</time>
   <time name="diis">    0.25    0.25</time>
   <time name="orth">    0.00    0.00</time>
   <time name="total">    1.21    1.21</time>
   <energy>
    <i name="e_fr_energy">     -0.63276501 </i>
    <i name="e_wo_entrp">     -0.01927914 </i>
    <i name="e_0_energy">     -0.32602207 </i>
   </energy>
  </scstep>
  <scstep>
   <time name="diag">    0.07    0.06</time>
   <time name="diis">    0.25    0.25</time>
   <time name="orth">    0.00    0.00</time>
   <time name="total">    1.18    1.19</time>
   <energy>
    <i name="e_fr_energy">     -0.63209061 </i>
    <i name="e_wo_entrp">     -0.01849427 </i>
    <i name="e_0_energy">     -0.32529244 </i>
   </energy>
  </scstep>
  <scstep>
   <time name="diag">    0.06    0.06</time>
   <time name="diis">    0.25    0.25</time>
   <time name="orth">    0.00    0.00</time>
   <time name="total">    1.18    1.18</time>
   <energy>
    <i name="e_fr_energy">     -0.63313192 </i>
    <i name="e_wo_entrp">     -0.01949538 </i>
    <i name="e_0_energy">     -0.32631365 </i>
   </energy>
  </scstep>
  <scstep>
   <time name="diag">    0.06    0.06</time>
   <time name="diis">    0.17    0.17</time>
   <time name="orth">    0.00    0.00</time>
   <time name="total">    1.10    1.10</time>
   <energy>
    <i name="e_fr_energy">     -0.63333590 </i>
    <i name="e_wo_entrp">     -0.01972073 </i>
    <i name="e_0_energy">     -0.32652832 </i>
   </energy>
  </scstep>
  <scstep>
   <time name="diag">    0.06    0.06</time>
   <time name="diis">    0.23    0.23</time>
   <time name="orth">    0.00    0.00</time>
   <time name="total">    1.04    1.05</time>
   <energy>
    <i name="alphaZ">      0.50884390 </i>
    <i name="ewald">   -146.38710983 </i>
    <i name="hartreedc">   -600.54041591 </i>
    <i name="XCdc">     52.10964226 </i>
    <i name="pawpsdc">    717.13512232 </i>
    <i name="pawaedc">   -720.65536642 </i>
    <i name="eentropy">     -0.61359330 </i>
    <i name="bandstr">   -166.71684740 </i>
    <i name="atom">    864.52639207 </i>
    <i name="e_fr_energy">     -0.63333230 </i>
    <i name="e_wo_entrp">     -0.01973901 </i>
    <i name="e_0_energy">     -0.32653566 </i>
   </energy>
  </scstep>
  <structure>
   <crystal>
    <varray name="basis" >
     <v>      10.10000000       0.00000000       0.00000000 </v>
     <v>       0.00000000      10.30000000       0.00000000 </v>
     <v>       0.00000000       0.00000000      10.50000000 </v>
    </varray>
    <i name="volume">   1092.31500000 </i>
    <varray name="rec_basis" >
     <v>       0.09900990       0.00000000       0.00000000 </v>
     <v>       0.00000000       0.09708738       0.00000000 </v>
     <v>       0.00000000       0.00000000       0.09523810 </v>
    </varray>
   </crystal>
   <varray name="positions" >
    <v>       0.00000000       0.00000000      -0.12017412 </v>
    <v>       0.00000000       0.00000000       0.31065031 </v>
   </varray>
  </structure>
  <varray name="forces" >
   <v>       0.00000000       0.00000000       0.01173553 </v>
   <v>       0.00000000       0.00000000      -0.01173553 </v>
  </varray>
  <varray name="stress" >
   <v>      -2.26978279       0.00000000       0.00000000 </v>
   <v>       0.00000000      -2.18878980       0.00000000 </v>
   <v>       0.00000000       0.00000000      -2.44340196 </v>
  </varray>
  <energy>
   <i name="e_fr_energy">     -0.63333230 </i>
   <i name="e_wo_entrp">     -0.32653566 </i>
   <i name="e_0_energy">     -0.61359330 </i>
  </energy>
  <time name="totalsc">   22.66   22.69</time>
 </calculation>
 <calculation>
  <scstep>
   <time name="dav">    0.35    0.35</time>
   <time name="total">    1.23    1.23</time>
   <energy>
    <i name="alphaZ">      0.50884390 </i>
    <i name="ewald">   -146.44540345 </i>
    <i name="hartreedc">   -600.47397542 </i>
    <i name="XCdc">     52.10874224 </i>
    <i name="pawpsdc">    717.06294907 </i>
    <i name="pawaedc">   -720.58301217 </i>
    <i name="eentropy">     -0.61365923 </i>
    <i name="bandstr">   -166.72413014 </i>
    <i name="atom">    864.52639207 </i>
    <i name="e_fr_energy">     -0.63325313 </i>
    <i name="e_wo_entrp">     -0.01959390 </i>
    <i name="e_0_energy">     -0.32642351 </i>
   </energy>
  </scstep>
  <scstep>
   <time name="diag">    0.07    0.07</time>
   <time name="diis">    0.22    0.22</time>
   <time name="orth">    0.00    0.00</time>
   <time name="total">    1.17    1.17</time>
   <energy>
    <i name="e_fr_energy">     -0.63335462 </i>
    <i name="e_wo_entrp">     -0.01969769 </i>
    <i name="e_0_energy">     -0.32652615 </i>
   </energy>
  </scstep>
  <scstep>
   <time name="diag">    0.07    0.07</time>
   <time name="diis">    0.18    0.18</time>
   <time name="orth">    0.00    0.00</time>
   <time name="total">    1.03    1.03</time>
   <energy>
    <i name="alphaZ">      0.50884390 </i>
    <i name="ewald">   -146.44540345 </i>
    <i name="hartreedc">   -600.48826639 </i>
    <i name="XCdc">     52.10968330 </i>
    <i name="pawpsdc">    717.09451368 </i>
    <i name="pawaedc">   -720.61486577 </i>
    <i name="eentropy">     -0.61365663 </i>
    <i name="bandstr">   -166.71060136 </i>
    <i name="atom">    864.52639207 </i>
    <i name="e_fr_energy">     -0.63336064 </i>
    <i name="e_wo_entrp">     -0.01970401 </i>
    <i name="e_0_energy">     -0.32653233 </i>
   </energy>
  </scstep>
  <structure>
   <crystal>
    <varray name="basis" >
     <v>      10.10000000       0.00000000       0.00000000 </v>
     <v>       0.00000000      10.30000000       0.00000000 </v>
     <v>       0.00000000       0.00000000      10.50000000 </v>
    </varray>
    <i name="volume">   1092.31500000 </i>
    <varray name="rec_basis" >
     <v>       0.09900990       0.00000000       0.00000000 </v>
     <v>       0.00000000       0.09708738       0.00000000 </v>
     <v>       0.00000000       0.00000000       0.09523810 </v>
    </varray>
   </crystal>
   <varray name="positions" >
    <v>       0.00000000       0.00000000      -0.12041441 </v>
    <v>       0.00000000       0.00000000       0.31089060 </v>
   </varray>
  </structure>
  <varray name="forces" >
   <v>       0.00000000       0.00000000       0.01881395 </v>
   <v>       0.00000000       0.00000000      -0.01881395 </v>
  </varray>
  <varray name="stress" >
   <v>      -2.29017967       0.00000000       0.00000000 </v>
   <v>       0.00000000      -2.21654041       0.00000000 </v>
   <v>       0.00000000       0.00000000      -2.46279674 </v>
  </varray>
  <energy>
   <i name="e_fr_energy">     -0.63336064 </i>
   <i name="e_wo_entrp">     -0.32653233 </i>
   <i name="e_0_energy">     -0.61365663 </i>
  </energy>
  <time name="totalsc">    5.92    5.93</time>
 </calculation>
 <calculation>
  <scstep>
   <time name="dav">    0.35    0.35</time>
   <time name="total">    1.23    1.23</time>
   <energy>
    <i name="alphaZ">      0.50884390 </i>
    <i name="ewald">   -146.28950269 </i>
    <i name="hartreedc">   -600.64492883 </i>
    <i name="XCdc">     52.10972950 </i>
    <i name="pawpsdc">    717.09930516 </i>
    <i name="pawaedc">   -720.61968768 </i>
    <i name="eentropy">     -0.61348903 </i>
    <i name="bandstr">   -166.70954585 </i>
    <i name="atom">    864.52639207 </i>
    <i name="e_fr_energy">     -0.63288346 </i>
    <i name="e_wo_entrp">     -0.01939443 </i>
    <i name="e_0_energy">     -0.32613894 </i>
   </energy>
  </scstep>
  <scstep>
   <time name="diag">    0.07    0.07</time>
   <time name="diis">    0.27    0.27</time>
   <time name="orth">    0.00    0.00</time>
   <time name="total">    1.23    1.23</time>
   <energy>
    <i name="e_fr_energy">     -0.63352009 </i>
    <i name="e_wo_entrp">     -0.02002397 </i>
    <i name="e_0_energy">     -0.32677203 </i>
   </energy>
  </scstep>
  <scstep>
   <time name="diag">    0.07    0.07</time>
   <time name="diis">    0.18    0.17</time>
   <time name="orth">    0.00    0.00</time>
   <time name="total">    1.03    1.03</time>
   <energy>
    <i name="alphaZ">      0.50884390 </i>
    <i name="ewald">   -146.28950269 </i>
    <i name="hartreedc">   -600.63614882 </i>
    <i name="XCdc">     52.10917583 </i>
    <i name="pawpsdc">    717.10480153 </i>
    <i name="pawaedc">   -720.62512264 </i>
    <i name="eentropy">     -0.61349228 </i>
    <i name="bandstr">   -166.71847145 </i>
    <i name="atom">    864.52639207 </i>
    <i name="e_fr_energy">     -0.63352455 </i>
    <i name="e_wo_entrp">     -0.02003227 </i>
    <i name="e_0_energy">     -0.32677841 </i>
   </energy>
  </scstep>
  <structure>
   <crystal>
    <varray name="basis" >
     <v>      10.10000000       0.00000000       0.00000000 </v>
     <v>       0.00000000      10.30000000       0.00000000 </v>
     <v>       0.00000000       0.00000000      10.50000000 </v>
    </varray>
    <i name="volume">   1092.31500000 </i>
    <varray name="rec_basis" >
     <v>       0.09900990       0.00000000       0.00000000 </v>
     <v>       0.00000000       0.09708738       0.00000000 </v>
     <v>       0.00000000       0.00000000       0.09523810 </v>
    </varray>
   </crystal>
   <varray name="positions" >
    <v>       0.00000000       0.00000000      -0.11977574 </v>
    <v>       0.00000000       0.00000000       0.31025193 </v>
   </varray>
  </structure>
  <varray name="forces" >
   <v>       0.00000000       0.00000000       0.00169836 </v>
   <v>       0.00000000       0.00000000      -0.00169836 </v>
  </varray>
  <varray name="stress" >
   <v>      -2.29427241       0.00000000       0.00000000 </v>
   <v>       0.00000000      -2.22302789       0.00000000 </v>
   <v>       0.00000000       0.00000000      -2.45745418 </v>
  </varray>
  <energy>
   <i name="e_fr_energy">     -0.63352455 </i>
   <i name="e_wo_entrp">     -0.32677841 </i>
   <i name="e_0_energy">     -0.61349228 </i>
  </energy>
  <time name="totalsc">    5.80    5.81</time>
  <eigenvalues>
   <array>
    <dimension dim="1">band</dimension>
    <dimension dim="2">kpoint</dimension>
    <dimension dim="3">spin</dimension>
    <field>eigene</field>
    <field>occ</field>
    <set>
     <set comment="spin 1">
      <set comment="kpoint 1">
       <r>  -23.8531    1.0000 </r>
       <r>  -23.8508    1.0000 </r>
       <r>   -8.9392    0.7320 </r>
       <r>   -8.9167    0.6771 </r>
       <r>   -8.9160    0.6754 </r>
       <r>   -8.9094    0.6583 </r>
       <r>   -8.9092    0.6579 </r>
       <r>   -8.8873    0.5994 </r>
       <r>   -0.5111    0.0000 </r>
       <r>    0.9433    0.0000 </r>
      </set>
     </set>
    </set>
   </array>
  </eigenvalues>
  <separator name="orbital magnetization" >
   <v name="MAGDIPOLOUT">      0.00000000      0.00000000      0.00000000</v>
  </separator>
 </calculation>
 <structure name="finalpos" >
  <crystal>
   <varray name="basis" >
    <v>      10.10000000       0.00000000       0.00000000 </v>
    <v>       0.00000000      10.30000000       0.00000000 </v>
    <v>       0.00000000       0.00000000      10.50000000 </v>
   </varray>
   <i name="volume">   1092.31500000 </i>
   <varray name="rec_basis" >
    <v>       0.09900990       0.00000000       0.00000000 </v>
    <v>       0.00000000       0.09708738       0.00000000 </v>
    <v>       0.00000000       0.00000000       0.09523810 </v>
   </varray>
  </crystal>
  <varray name="positions" >
   <v>       0.00000000       0.00000000      -0.11977574 </v>
   <v>       0.00000000       0.00000000       0.31025193 </v>
  </varray>
  <varray name="selective"  type="logical" >
   <v type="logical" >  F  F  T </v>
   <v type="logical" >  F  F  T </v>
  </varray>
  <nose>
   <v>      -3.00000000       0.00000000       0.00010000       0.00010000 </v>
  </nose>
 </structure>
</modeling>
