O2                                      
           1
    10.100000    0.000000    0.000000
     0.000000   10.300000    0.000000
     0.000000    0.000000   10.500000
   O 
   2
Direct configuration=     1
   0.00000000  0.00000000  0.00000000
   0.00000000  0.00000000  0.19047619
Direct configuration=     2
   0.00000000  0.00000000  0.02701056
   0.00000000  0.00000000  0.16346563
Direct configuration=     3
   0.00000000  0.00000000 -0.12017412
   0.00000000  0.00000000  0.31065031
Direct configuration=     4
   0.00000000  0.00000000 -0.12041441
   0.00000000  0.00000000  0.31089060
Direct configuration=     5
   0.00000000  0.00000000 -0.11977574
   0.00000000  0.00000000  0.31025193
