 running on    1 total cores
 distrk:  each k-point on    1 cores,    1 groups
 distr:  one band on    1 cores,    1 groups
 using from now: INCAR     
 vasp.5.3.3 18Dez12 (build Sep  7 2015 22:32:56) complex                        
  
 POSCAR found type information on POSCAR  Fe
 POSCAR found :  1 types and       6 ions
 LDA part: xc-table for Pade appr. of Perdew
 POSCAR, INCAR and KPOINTS ok, starting setup
 WARNING: small aliasing (wrap around) errors must be expected
 FFT: planning ...
 WAVECAR not read
 entering main loop
       N       E                     dE             d eps       ncg     rms          rms(c)
DAV:   1     0.311934966708E+03    0.31193E+03   -0.16082E+04  3100   0.124E+03
DAV:   2    -0.226998364501E+02   -0.33463E+03   -0.32126E+03  3100   0.348E+02
DAV:   3    -0.478663454627E+02   -0.25167E+02   -0.22707E+02  4720   0.105E+02
DAV:   4    -0.505125619096E+02   -0.26462E+01   -0.24820E+01  4720   0.352E+01
DAV:   5    -0.507785856719E+02   -0.26602E+00   -0.25057E+00  4797   0.678E+00
DAV:   6    -0.508065966525E+02   -0.28011E-01   -0.27031E-01  4761   0.155E+00
DAV:   7    -0.508127888975E+02   -0.61922E-02   -0.60414E-02  4798   0.395E-01
DAV:   8    -0.508140934957E+02   -0.13046E-02   -0.12987E-02  3749   0.143E-01
DAV:   9    -0.508145462059E+02   -0.45271E-03   -0.45232E-03  3069   0.586E-02
DAV:  10    -0.508147239262E+02   -0.17772E-03   -0.17767E-03  2623   0.317E-02    0.245E+01
RMM:  11    -0.750001157238E+02   -0.24185E+02   -0.18745E+02  3755   0.138E+02    0.628E+01
RMM:  12    -0.602526495086E+02    0.14747E+02   -0.60055E+01  3208   0.759E+01    0.543E+01
RMM:  13    -0.482182063863E+02    0.12034E+02   -0.43937E+01  3130   0.631E+01    0.357E+01
RMM:  14    -0.496770077055E+02   -0.14588E+01   -0.15731E+01  3275   0.389E+01    0.325E+01
RMM:  15    -0.544648691108E+02   -0.47879E+01   -0.15173E+01  3421   0.300E+01    0.426E+01
RMM:  16    -0.454618220326E+02    0.90030E+01   -0.37999E+00  3233   0.158E+01    0.293E+01
RMM:  17    -0.438014750345E+02    0.16603E+01   -0.47907E+00  3473   0.143E+01    0.214E+01
RMM:  18    -0.432587187640E+02    0.54276E+00   -0.24762E+00  3433   0.106E+01    0.139E+01
RMM:  19    -0.432760944735E+02   -0.17376E-01   -0.13224E+00  4518   0.279E+00    0.140E+01
RMM:  20    -0.432934872110E+02   -0.17393E-01   -0.36387E-01  4126   0.152E+00    0.145E+01
RMM:  21    -0.432660865661E+02    0.27401E-01   -0.53299E-01  3386   0.428E+00    0.161E+01
RMM:  22    -0.425209195079E+02    0.74517E+00   -0.88805E-01  3267   0.662E+00    0.144E+01
RMM:  23    -0.428857930952E+02   -0.36487E+00   -0.49008E-01  4218   0.232E+00    0.148E+01
RMM:  24    -0.429451319940E+02   -0.59339E-01   -0.14728E-01  3316   0.228E+00    0.147E+01
RMM:  25    -0.431653007695E+02   -0.22017E+00   -0.53140E-01  3504   0.403E+00    0.142E+01
RMM:  26    -0.429977699460E+02    0.16753E+00   -0.99849E-02  3936   0.142E+00    0.144E+01
RMM:  27    -0.429442356963E+02    0.53534E-01   -0.58894E-02  4254   0.659E-01    0.144E+01
RMM:  28    -0.429262210822E+02    0.18015E-01   -0.79212E-02  3587   0.140E+00    0.139E+01
RMM:  29    -0.429831026633E+02   -0.56882E-01   -0.11379E-01  3222   0.222E+00    0.142E+01
RMM:  30    -0.429600113638E+02    0.23091E-01   -0.17616E-01  4005   0.120E+00    0.141E+01
RMM:  31    -0.429827988767E+02   -0.22788E-01   -0.46793E-02  4488   0.360E-01    0.142E+01
RMM:  32    -0.429827610951E+02    0.37782E-04   -0.21381E-02  4171   0.298E-01    0.142E+01
RMM:  33    -0.429805867663E+02    0.21743E-02   -0.84583E-03  3373   0.411E-01    0.142E+01
RMM:  34    -0.428951603613E+02    0.85426E-01   -0.14922E-01  3520   0.209E+00    0.138E+01
RMM:  35    -0.428263347718E+02    0.68826E-01   -0.34813E-01  4141   0.209E+00    0.127E+01
RMM:  36    -0.426602048961E+02    0.16613E+00   -0.49104E-01  3951   0.318E+00    0.105E+01
RMM:  37    -0.424386948067E+02    0.22151E+00   -0.67191E-01  3746   0.370E+00    0.981E+00
RMM:  38    -0.423001353710E+02    0.13856E+00   -0.54877E-01  4146   0.264E+00    0.914E+00
RMM:  39    -0.422730568033E+02    0.27079E-01   -0.21596E-01  4471   0.129E+00    0.920E+00
RMM:  40    -0.423046573709E+02   -0.31601E-01   -0.53876E-02  3577   0.121E+00    0.936E+00
RMM:  41    -0.423388394552E+02   -0.34182E-01   -0.49394E-02  4431   0.604E-01    0.945E+00
RMM:  42    -0.423170237463E+02    0.21816E-01   -0.95700E-03  3634   0.372E-01    0.961E+00
RMM:  43    -0.420193945507E+02    0.29763E+00   -0.10268E-01  3400   0.180E+00    0.103E+01
RMM:  44    -0.418808677809E+02    0.13853E+00   -0.99431E-02  3962   0.111E+00    0.104E+01
RMM:  45    -0.420162474198E+02   -0.13538E+00   -0.22650E-02  3243   0.893E-01    0.103E+01
RMM:  46    -0.420739798502E+02   -0.57732E-01   -0.19108E-02  3808   0.496E-01    0.103E+01
RMM:  47    -0.420171297028E+02    0.56850E-01   -0.14185E-02  3363   0.742E-01    0.104E+01
RMM:  48    -0.420009190396E+02    0.16211E-01   -0.13468E-02  4185   0.421E-01    0.104E+01
RMM:  49    -0.420089349055E+02   -0.80159E-02   -0.48368E-02  3493   0.139E+00    0.101E+01
RMM:  50    -0.417637885325E+02    0.24515E+00   -0.44238E-01  3522   0.411E+00    0.961E+00
RMM:  51    -0.419585302368E+02   -0.19474E+00   -0.55949E-01  4212   0.267E+00    0.802E+00
RMM:  52    -0.421453115952E+02   -0.18678E+00   -0.16455E-01  3757   0.203E+00    0.746E+00
RMM:  53    -0.425261466580E+02   -0.38084E+00   -0.68601E-01  3444   0.521E+00    0.596E+00
RMM:  54    -0.426356541849E+02   -0.10951E+00   -0.84515E-01  3904   0.439E+00    0.456E+00
RMM:  55    -0.428250858818E+02   -0.18943E+00   -0.56558E-01  3609   0.368E+00    0.341E+00
RMM:  56    -0.428025649652E+02    0.22521E-01   -0.85504E-01  3881   0.449E+00    0.375E+00
RMM:  57    -0.428681480702E+02   -0.65583E-01   -0.35698E-01  4121   0.236E+00    0.374E+00
RMM:  58    -0.428557155063E+02    0.12433E-01   -0.11567E-01  4053   0.132E+00    0.401E+00
RMM:  59    -0.428135750023E+02    0.42141E-01   -0.23138E-01  3479   0.300E+00    0.452E+00
RMM:  60    -0.428967538833E+02   -0.83179E-01   -0.70819E-02  3670   0.138E+00

 ----------------------------------------------------------------------------- 
|                                                                             |
|           W    W    AA    RRRRR   N    N  II  N    N   GGGG   !!!           |
|           W    W   A  A   R    R  NN   N  II  NN   N  G    G  !!!           |
|           W    W  A    A  R    R  N N  N  II  N N  N  G       !!!           |
|           W WW W  AAAAAA  RRRRR   N  N N  II  N  N N  G  GGG   !            |
|           WW  WW  A    A  R   R   N   NN  II  N   NN  G    G                |
|           W    W  A    A  R    R  N    N  II  N    N   GGGG   !!!           |
|                                                                             |
|      Your highest band is occupied at some k-points! Unless you are         |
|      performing a calculation for an insulator or semiconductor, without    |
|      unoccupied bands, you have included TOO FEW BANDS!! Please increase    |
|      the parameter NBANDS in file INCAR to ensure that the highest band   |
|      is unoccupied at all k-points. It is always recommended to             |
|      include a few unoccupied bands to accelerate the convergence of        |
|      molecular dynamics runs (even for insulators or semiconductors).       |
|      Because the presence of unoccupied bands improves wavefunction         |
|      prediction, and helps to suppress 'band-crossings.'                    |
|                                                                             |
 ----------------------------------------------------------------------------- 

   1 F= -.42896754E+02 E0= -.42896859E+02  d E =-.428968E+02  mag=     5.4052
 curvature:   0.00 expect dE= 0.000E+00 dE for cont linesearch  0.000E+00
 trial: gam= 0.00000 g(F)=  0.155E+00 g(S)=  0.000E+00 ort = 0.000E+00 (trialstep = 0.100E+01)
 search vector abs. value=  0.155E+00
 bond charge predicted
       N       E                     dE             d eps       ncg     rms          rms(c)
DAV:   1    -0.430624609814E+02   -0.24889E+00   -0.30732E+01  3128   0.294E+01    0.204E+00
RMM:   2    -0.436318943741E+02   -0.56943E+00   -0.10966E+00  3225   0.837E+00    0.107E+01
RMM:   3    -0.433267188456E+02    0.30518E+00   -0.27912E-01  3636   0.316E+00    0.711E+00
RMM:   4    -0.432606325573E+02    0.66086E-01   -0.19883E-01  3196   0.368E+00    0.587E+00
RMM:   5    -0.432548548470E+02    0.57777E-02   -0.23180E-01  3412   0.328E+00    0.531E+00
RMM:   6    -0.431930852617E+02    0.61770E-01   -0.55253E-02  3299   0.181E+00    0.356E+00
RMM:   7    -0.432101417988E+02   -0.17057E-01   -0.54946E-02  4232   0.770E-01    0.400E+00
RMM:   8    -0.431921441641E+02    0.17998E-01   -0.26550E-02  3172   0.124E+00    0.324E+00
RMM:   9    -0.431871237564E+02    0.50204E-02   -0.74339E-03  3811   0.414E-01    0.309E+00
RMM:  10    -0.431873261449E+02   -0.20239E-03   -0.17939E-02  3419   0.812E-01    0.266E+00
RMM:  11    -0.431696758899E+02    0.17650E-01   -0.71941E-02  3401   0.135E+00    0.180E+00
RMM:  12    -0.431707310460E+02   -0.10552E-02   -0.40981E-02  4128   0.548E-01    0.189E+00
RMM:  13    -0.431065999955E+02    0.64131E-01   -0.47856E-02  3295   0.125E+00    0.160E+00
RMM:  14    -0.430541413049E+02    0.52459E-01   -0.43551E-02  3532   0.121E+00    0.134E+00
RMM:  15    -0.430706748935E+02   -0.16534E-01   -0.43486E-02  3825   0.899E-01    0.135E+00
RMM:  16    -0.431023306656E+02   -0.31656E-01   -0.22502E-02  3318   0.710E-01    0.113E+00
RMM:  17    -0.431056430631E+02   -0.33124E-02   -0.99606E-03  4327   0.266E-01    0.109E+00
RMM:  18    -0.431192962751E+02   -0.13653E-01   -0.90618E-03  3280   0.563E-01    0.906E-01
RMM:  19    -0.431315210153E+02   -0.12225E-01   -0.98831E-03  3646   0.491E-01    0.934E-01
RMM:  20    -0.431250061338E+02    0.65149E-02   -0.65423E-03  3401   0.437E-01    0.933E-01
RMM:  21    -0.431233720355E+02    0.16341E-02   -0.48872E-03  4196   0.222E-01    0.989E-01
RMM:  22    -0.431191726018E+02    0.41994E-02   -0.47516E-03  3226   0.452E-01    0.855E-01
RMM:  23    -0.431087845649E+02    0.10388E-01   -0.81831E-03  3548   0.446E-01    0.555E-01
RMM:  24    -0.431141594199E+02   -0.53749E-02   -0.89208E-03  3676   0.381E-01    0.322E-01
RMM:  25    -0.431321843332E+02   -0.18025E-01   -0.84394E-03  3723   0.296E-01    0.182E-01
RMM:  26    -0.431549516471E+02   -0.22767E-01   -0.71081E-03  3706   0.240E-01    0.116E-01
RMM:  27    -0.431690608011E+02   -0.14109E-01   -0.56736E-03  3763   0.198E-01    0.975E-02
RMM:  28    -0.431779185618E+02   -0.88578E-02   -0.53754E-03  3699   0.202E-01    0.796E-02
RMM:  29    -0.431832230097E+02   -0.53044E-02   -0.43653E-03  3798   0.181E-01    0.625E-02
RMM:  30    -0.431852667476E+02   -0.20437E-02   -0.34327E-03  3933   0.164E-01    0.541E-02
RMM:  31    -0.431861463582E+02   -0.87961E-03   -0.24527E-03  4059   0.125E-01    0.446E-02
RMM:  32    -0.431867576237E+02   -0.61127E-03   -0.18803E-03  3875   0.973E-02    0.462E-02
RMM:  33    -0.431870556920E+02   -0.29807E-03   -0.11294E-03  3401   0.687E-02    0.594E-02
RMM:  34    -0.431867403460E+02    0.31535E-03   -0.43169E-04  2823   0.972E-02    0.865E-02
RMM:  35    -0.431866305986E+02    0.10975E-03   -0.38805E-04  2159   0.353E-02    0.918E-02
RMM:  36    -0.431866944732E+02   -0.63875E-04   -0.19556E-04  1843   0.213E-02    0.904E-02
RMM:  37    -0.431868298862E+02   -0.13541E-03   -0.19759E-04  1789   0.187E-02    0.851E-02
RMM:  38    -0.431869841465E+02   -0.15426E-03   -0.13538E-04  1873   0.235E-02    0.774E-02
RMM:  39    -0.431871879201E+02   -0.20377E-03   -0.24490E-04  2426   0.379E-02    0.647E-02
RMM:  40    -0.431873406937E+02   -0.15277E-03   -0.23584E-04  2751   0.417E-02    0.588E-02
RMM:  41    -0.431875309173E+02   -0.19022E-03   -0.39184E-04  3227   0.601E-02    0.488E-02
RMM:  42    -0.431876904524E+02   -0.15954E-03   -0.44716E-04  3464   0.629E-02    0.471E-02
RMM:  43    -0.431878076902E+02   -0.11724E-03   -0.26468E-04  2940   0.524E-02    0.588E-02
RMM:  44    -0.431878355404E+02   -0.27850E-04   -0.18349E-04  2387   0.424E-02    0.695E-02
RMM:  45    -0.431878255309E+02    0.10009E-04   -0.11901E-04  1961   0.305E-02    0.750E-02
RMM:  46    -0.431877906220E+02    0.34909E-04   -0.70384E-05  1780   0.256E-02    0.783E-02
RMM:  47    -0.431877790354E+02    0.11587E-04   -0.54602E-05  1713   0.186E-02    0.778E-02
RMM:  48    -0.431877834432E+02   -0.44077E-05   -0.44937E-05  1696   0.148E-02

 ----------------------------------------------------------------------------- 
|                                                                             |
|           W    W    AA    RRRRR   N    N  II  N    N   GGGG   !!!           |
|           W    W   A  A   R    R  NN   N  II  NN   N  G    G  !!!           |
|           W    W  A    A  R    R  N N  N  II  N N  N  G       !!!           |
|           W WW W  AAAAAA  RRRRR   N  N N  II  N  N N  G  GGG   !            |
|           WW  WW  A    A  R   R   N   NN  II  N   NN  G    G                |
|           W    W  A    A  R    R  N    N  II  N    N   GGGG   !!!           |
|                                                                             |
|      Your highest band is occupied at some k-points! Unless you are         |
|      performing a calculation for an insulator or semiconductor, without    |
|      unoccupied bands, you have included TOO FEW BANDS!! Please increase    |
|      the parameter NBANDS in file INCAR to ensure that the highest band   |
|      is unoccupied at all k-points. It is always recommended to             |
|      include a few unoccupied bands to accelerate the convergence of        |
|      molecular dynamics runs (even for insulators or semiconductors).       |
|      Because the presence of unoccupied bands improves wavefunction         |
|      prediction, and helps to suppress 'band-crossings.'                    |
|                                                                             |
 ----------------------------------------------------------------------------- 

   2 F= -.43187783E+02 E0= -.43188075E+02  d E =-.291030E+00  mag=     5.3946
 ZBRENT: can't locate minimum, use default step
 trial-energy change:   -0.291030  1 .order   -0.143995   -0.155292   -0.132697
 step:   4.0000(harm=  6.8729)  dis= 0.18326  next Energy=   -43.430407 (dE=-0.534E+00)
 bond charge predicted
       N       E                     dE             d eps       ncg     rms          rms(c)
DAV:   1    -0.428486939552E+02    0.33909E+00   -0.30178E+02  3116   0.108E+02    0.544E+00
RMM:   2    -0.585869305447E+02   -0.15738E+02   -0.29366E+01  3427   0.418E+01    0.448E+01
RMM:   3    -0.479867370865E+02    0.10600E+02   -0.41593E+00  3148   0.186E+01    0.313E+01
RMM:   4    -0.434755431869E+02    0.45112E+01   -0.35836E+00  3173   0.167E+01    0.109E+01
RMM:   5    -0.437302012033E+02   -0.25466E+00   -0.20234E+00  3557   0.764E+00    0.117E+01
RMM:   6    -0.434000141026E+02    0.33019E+00   -0.61585E-01  3435   0.536E+00    0.607E+00
RMM:   7    -0.433205944112E+02    0.79420E-01   -0.29894E-01  3514   0.369E+00    0.413E+00
RMM:   8    -0.432721961601E+02    0.48398E-01   -0.10752E-01  3292   0.245E+00    0.185E+00
RMM:   9    -0.432851112078E+02   -0.12915E-01   -0.78773E-02  3540   0.174E+00    0.223E+00
RMM:  10    -0.432755199815E+02    0.95912E-02   -0.55152E-02  3398   0.150E+00    0.181E+00
RMM:  11    -0.432768171400E+02   -0.12972E-02   -0.24930E-02  4431   0.365E-01    0.201E+00
RMM:  12    -0.432709736009E+02    0.58435E-02   -0.18939E-02  3269   0.781E-01    0.249E+00
RMM:  13    -0.432510837241E+02    0.19890E-01   -0.24138E-02  3323   0.906E-01    0.245E+00
RMM:  14    -0.432563276091E+02   -0.52439E-02   -0.14589E-02  3174   0.920E-01    0.275E+00
RMM:  15    -0.432650009243E+02   -0.86733E-02   -0.90010E-02  3464   0.155E+00    0.286E+00
RMM:  16    -0.432417823674E+02    0.23219E-01   -0.33037E-02  3753   0.876E-01    0.291E+00
RMM:  17    -0.432416756164E+02    0.10675E-03   -0.10077E-02  3803   0.496E-01    0.283E+00
RMM:  18    -0.432451357953E+02   -0.34602E-02   -0.47166E-03  3922   0.277E-01    0.295E+00
RMM:  19    -0.432447372530E+02    0.39854E-03   -0.17340E-03  4106   0.935E-02    0.298E+00
RMM:  20    -0.432379936877E+02    0.67436E-02   -0.45246E-03  3221   0.459E-01    0.296E+00
RMM:  21    -0.432402438064E+02   -0.22501E-02   -0.62886E-03  3603   0.443E-01    0.303E+00
RMM:  22    -0.432525190779E+02   -0.12275E-01   -0.40499E-03  3347   0.369E-01    0.316E+00
RMM:  23    -0.432587807816E+02   -0.62617E-02   -0.32631E-03  3833   0.240E-01    0.326E+00
RMM:  24    -0.432620345540E+02   -0.32538E-02   -0.36575E-03  3405   0.370E-01    0.335E+00
RMM:  25    -0.432614633520E+02    0.57120E-03   -0.18076E-02  3464   0.785E-01    0.369E+00
RMM:  26    -0.432604195879E+02    0.10438E-02   -0.10492E-02  4294   0.312E-01    0.381E+00
RMM:  27    -0.432642796046E+02   -0.38600E-02   -0.34074E-03  3284   0.366E-01    0.384E+00
RMM:  28    -0.432733065155E+02   -0.90269E-02   -0.44456E-03  3999   0.246E-01    0.399E+00
RMM:  29    -0.432769649399E+02   -0.36584E-02   -0.28798E-03  4141   0.125E-01    0.412E+00
RMM:  30    -0.432779542394E+02   -0.98930E-03   -0.66764E-04  3191   0.192E-01    0.403E+00
RMM:  31    -0.432684874874E+02    0.94668E-02   -0.45518E-03  3276   0.465E-01    0.365E+00
RMM:  32    -0.432569197744E+02    0.11568E-01   -0.16302E-02  3723   0.603E-01    0.314E+00
RMM:  33    -0.432240535849E+02    0.32866E-01   -0.56855E-02  3607   0.120E+00    0.219E+00
RMM:  34    -0.432178845047E+02    0.61691E-02   -0.49821E-02  4225   0.695E-01    0.155E+00
RMM:  35    -0.432186443891E+02   -0.75988E-03   -0.97079E-03  4213   0.268E-01    0.144E+00
RMM:  36    -0.432186736554E+02   -0.29266E-04   -0.21976E-03  3986   0.114E-01    0.140E+00
RMM:  37    -0.432176055295E+02    0.10681E-02   -0.10772E-03  3662   0.885E-02    0.135E+00
RMM:  38    -0.432163396251E+02    0.12659E-02   -0.11860E-03  3590   0.155E-01    0.126E+00
RMM:  39    -0.432146877700E+02    0.16519E-02   -0.28708E-03  3610   0.253E-01    0.113E+00
RMM:  40    -0.432116378128E+02    0.30500E-02   -0.74473E-03  3680   0.399E-01    0.872E-01
RMM:  41    -0.432193246231E+02   -0.76868E-02   -0.21811E-02  3655   0.705E-01    0.618E-01
RMM:  42    -0.432252658099E+02   -0.59412E-02   -0.88858E-03  4262   0.269E-01    0.712E-01
RMM:  43    -0.432273987962E+02   -0.21330E-02   -0.16085E-03  3272   0.217E-01    0.678E-01
RMM:  44    -0.432325476084E+02   -0.51488E-02   -0.10165E-03  3785   0.128E-01    0.677E-01
RMM:  45    -0.432458955543E+02   -0.13348E-01   -0.50623E-03  3305   0.391E-01    0.680E-01
RMM:  46    -0.432546062198E+02   -0.87107E-02   -0.10387E-02  3496   0.514E-01    0.102E+00
RMM:  47    -0.432569763634E+02   -0.23701E-02   -0.48235E-03  3940   0.252E-01    0.104E+00
RMM:  48    -0.432572956312E+02   -0.31927E-03   -0.16234E-03  3673   0.191E-01    0.989E-01
RMM:  49    -0.432568206189E+02    0.47501E-03   -0.38476E-03  3521   0.331E-01    0.750E-01
RMM:  50    -0.432567119791E+02    0.10864E-03   -0.55074E-03  3920   0.308E-01    0.514E-01
RMM:  51    -0.432595694908E+02   -0.28575E-02   -0.18684E-03  3326   0.253E-01    0.660E-01
RMM:  52    -0.432571235869E+02    0.24459E-02   -0.50070E-03  3285   0.489E-01    0.316E-01
RMM:  53    -0.432584855994E+02   -0.13620E-02   -0.35241E-03  4343   0.143E-01    0.211E-01
RMM:  54    -0.432589532707E+02   -0.46767E-03   -0.65850E-04  3197   0.598E-02    0.196E-01
RMM:  55    -0.432587405157E+02    0.21275E-03   -0.26108E-04  3180   0.916E-02    0.222E-01
RMM:  56    -0.432587371996E+02    0.33161E-05   -0.39017E-04  3617   0.785E-02    0.265E-01
RMM:  57    -0.432588909345E+02   -0.15373E-03   -0.14263E-04  2545   0.449E-02    0.279E-01
RMM:  58    -0.432588021454E+02    0.88789E-04   -0.20198E-04  3096   0.541E-02    0.311E-01
RMM:  59    -0.432588885387E+02   -0.86393E-04   -0.88557E-05  2271   0.420E-02    0.311E-01
RMM:  60    -0.432588651130E+02    0.23426E-04   -0.10698E-04  2273   0.363E-02

 ----------------------------------------------------------------------------- 
|                                                                             |
|           W    W    AA    RRRRR   N    N  II  N    N   GGGG   !!!           |
|           W    W   A  A   R    R  NN   N  II  NN   N  G    G  !!!           |
|           W    W  A    A  R    R  N N  N  II  N N  N  G       !!!           |
|           W WW W  AAAAAA  RRRRR   N  N N  II  N  N N  G  GGG   !            |
|           WW  WW  A    A  R   R   N   NN  II  N   NN  G    G                |
|           W    W  A    A  R    R  N    N  II  N    N   GGGG   !!!           |
|                                                                             |
|      Your highest band is occupied at some k-points! Unless you are         |
|      performing a calculation for an insulator or semiconductor, without    |
|      unoccupied bands, you have included TOO FEW BANDS!! Please increase    |
|      the parameter NBANDS in file INCAR to ensure that the highest band   |
|      is unoccupied at all k-points. It is always recommended to             |
|      include a few unoccupied bands to accelerate the convergence of        |
|      molecular dynamics runs (even for insulators or semiconductors).       |
|      Because the presence of unoccupied bands improves wavefunction         |
|      prediction, and helps to suppress 'band-crossings.'                    |
|                                                                             |
 ----------------------------------------------------------------------------- 

   3 F= -.43258865E+02 E0= -.43258893E+02  d E =-.362111E+00  mag=     5.4294
 curvature:  -2.61 expect dE=-0.407E+00 dE for cont linesearch -0.136E+00
 ZBRENT: interpolating
 opt :   2.7887  next Energy=   -43.313291 (dE=-0.417E+00)
 bond charge predicted
       N       E                     dE             d eps       ncg     rms          rms(c)
DAV:   1    -0.432529017096E+02    0.59868E-02   -0.44483E+01  3100   0.358E+01    0.253E+00
RMM:   2    -0.485221509033E+02   -0.52692E+01   -0.59164E+00  3491   0.176E+01    0.304E+01
RMM:   3    -0.438325700821E+02    0.46896E+01   -0.85420E-01  3149   0.824E+00    0.119E+01
RMM:   4    -0.433607876574E+02    0.47178E+00   -0.59750E-01  3172   0.643E+00    0.392E+00
RMM:   5    -0.433608300986E+02   -0.42441E-04   -0.31390E-01  3355   0.379E+00    0.337E+00
RMM:   6    -0.433639543922E+02   -0.31243E-02   -0.14097E-01  3472   0.231E+00    0.332E+00
RMM:   7    -0.433319279685E+02    0.32026E-01   -0.42283E-02  3605   0.121E+00    0.156E+00
RMM:   8    -0.433332870125E+02   -0.13590E-02   -0.19948E-02  3913   0.578E-01    0.156E+00
RMM:   9    -0.433334758006E+02   -0.18879E-03   -0.61465E-03  4341   0.208E-01    0.169E+00
RMM:  10    -0.433376049246E+02   -0.41291E-02   -0.47633E-03  3405   0.419E-01    0.195E+00
RMM:  11    -0.433436987655E+02   -0.60938E-02   -0.14206E-02  3577   0.632E-01    0.223E+00
RMM:  12    -0.433296669434E+02    0.14032E-01   -0.13118E-02  3160   0.875E-01    0.204E+00
RMM:  13    -0.432974605088E+02    0.32206E-01   -0.74927E-02  3537   0.114E+00    0.181E+00
RMM:  14    -0.432902685151E+02    0.71920E-02   -0.17493E-02  3656   0.454E-01    0.196E+00
RMM:  15    -0.432920674362E+02   -0.17989E-02   -0.83025E-02  3327   0.181E+00    0.145E+00
RMM:  16    -0.433137428336E+02   -0.21675E-01   -0.55908E-02  3682   0.954E-01    0.110E+00
RMM:  17    -0.433177569076E+02   -0.40141E-02   -0.44881E-02  3663   0.879E-01    0.806E-01
RMM:  18    -0.433178286784E+02   -0.71771E-04   -0.21147E-02  3811   0.605E-01    0.537E-01
RMM:  19    -0.433188343696E+02   -0.10057E-02   -0.51582E-03  4338   0.197E-01    0.575E-01
RMM:  20    -0.433109775830E+02    0.78568E-02   -0.63548E-03  3254   0.443E-01    0.665E-01
RMM:  21    -0.433033303639E+02    0.76472E-02   -0.76191E-03  3513   0.444E-01    0.739E-01
RMM:  22    -0.433162948056E+02   -0.12964E-01   -0.12229E-02  3167   0.768E-01    0.284E-01
RMM:  23    -0.433219274811E+02   -0.56327E-02   -0.10671E-02  3693   0.522E-01    0.287E-01
RMM:  24    -0.433241587391E+02   -0.22313E-02   -0.31087E-03  3630   0.249E-01    0.208E-01
RMM:  25    -0.433248682705E+02   -0.70953E-03   -0.20518E-03  4071   0.137E-01    0.199E-01
RMM:  26    -0.433247885717E+02    0.79699E-04   -0.14502E-03  3658   0.164E-01    0.153E-01
RMM:  27    -0.433244380460E+02    0.35053E-03   -0.18079E-03  3825   0.195E-01    0.158E-01
RMM:  28    -0.433245429243E+02   -0.10488E-03   -0.59098E-04  3566   0.117E-01    0.140E-01
RMM:  29    -0.433247312107E+02   -0.18829E-03   -0.33514E-04  3064   0.499E-02    0.143E-01
RMM:  30    -0.433248399215E+02   -0.10871E-03   -0.11915E-04  2848   0.915E-02    0.141E-01
RMM:  31    -0.433251596263E+02   -0.31970E-03   -0.16416E-03  3293   0.263E-01    0.176E-01
RMM:  32    -0.433243167972E+02    0.84283E-03   -0.19334E-03  3668   0.212E-01    0.194E-01
RMM:  33    -0.433250750447E+02   -0.75825E-03   -0.11581E-03  3850   0.140E-01    0.166E-01
RMM:  34    -0.433255362069E+02   -0.46116E-03   -0.55726E-04  3645   0.112E-01    0.125E-01
RMM:  35    -0.433257823308E+02   -0.24612E-03   -0.23910E-04  3360   0.651E-02    0.114E-01
RMM:  36    -0.433258761427E+02   -0.93812E-04   -0.12381E-04  2827   0.526E-02    0.945E-02
RMM:  37    -0.433259314928E+02   -0.55350E-04   -0.10438E-04  2468   0.422E-02    0.820E-02
RMM:  38    -0.433259339548E+02   -0.24620E-05   -0.27506E-05  1812   0.281E-02

 ----------------------------------------------------------------------------- 
|                                                                             |
|           W    W    AA    RRRRR   N    N  II  N    N   GGGG   !!!           |
|           W    W   A  A   R    R  NN   N  II  NN   N  G    G  !!!           |
|           W    W  A    A  R    R  N N  N  II  N N  N  G       !!!           |
|           W WW W  AAAAAA  RRRRR   N  N N  II  N  N N  G  GGG   !            |
|           WW  WW  A    A  R   R   N   NN  II  N   NN  G    G                |
|           W    W  A    A  R    R  N    N  II  N    N   GGGG   !!!           |
|                                                                             |
|      Your highest band is occupied at some k-points! Unless you are         |
|      performing a calculation for an insulator or semiconductor, without    |
|      unoccupied bands, you have included TOO FEW BANDS!! Please increase    |
|      the parameter NBANDS in file INCAR to ensure that the highest band   |
|      is unoccupied at all k-points. It is always recommended to             |
|      include a few unoccupied bands to accelerate the convergence of        |
|      molecular dynamics runs (even for insulators or semiconductors).       |
|      Because the presence of unoccupied bands improves wavefunction         |
|      prediction, and helps to suppress 'band-crossings.'                    |
|                                                                             |
 ----------------------------------------------------------------------------- 

   4 F= -.43325934E+02 E0= -.43326679E+02  d E =-.429180E+00  mag=     5.3907
 curvature:  -1.05 expect dE=-0.571E-01 dE for cont linesearch -0.242E-03
 trial: gam= 0.31288 g(F)=  0.546E-01 g(S)=  0.000E+00 ort = 0.599E-02 (trialstep = 0.136E+01)
 search vector abs. value=  0.735E-01
 bond charge predicted
       N       E                     dE             d eps       ncg     rms          rms(c)
DAV:   1    -0.433736993862E+02   -0.47768E-01   -0.25064E+01  3100   0.266E+01    0.171E+00
RMM:   2    -0.458129952230E+02   -0.24393E+01   -0.38210E+00  3284   0.149E+01    0.218E+01
RMM:   3    -0.440851564278E+02    0.17278E+01   -0.52375E-01  3156   0.645E+00    0.141E+01
RMM:   4    -0.433900974701E+02    0.69506E+00   -0.47064E-01  3174   0.534E+00    0.156E+00
RMM:   5    -0.434335482105E+02   -0.43451E-01   -0.22970E-01  3735   0.204E+00    0.325E+00
RMM:   6    -0.434005898774E+02    0.32958E-01   -0.38687E-02  3346   0.137E+00    0.758E-01
RMM:   7    -0.434042014651E+02   -0.36116E-02   -0.30039E-02  3625   0.973E-01    0.104E+00
RMM:   8    -0.433998039482E+02    0.43975E-02   -0.80801E-03  3386   0.614E-01    0.732E-01
RMM:   9    -0.433999991626E+02   -0.19521E-03   -0.33138E-03  4332   0.143E-01    0.750E-01
RMM:  10    -0.434026310641E+02   -0.26319E-02   -0.81336E-03  3269   0.644E-01    0.137E+00
RMM:  11    -0.433947790339E+02    0.78520E-02   -0.57232E-03  3153   0.622E-01    0.731E-01
RMM:  12    -0.433884011259E+02    0.63779E-02   -0.70069E-03  3380   0.470E-01    0.575E-01
RMM:  13    -0.433882676669E+02    0.13346E-03   -0.14443E-03  4083   0.147E-01    0.603E-01
RMM:  14    -0.433886231715E+02   -0.35550E-03   -0.96723E-04  3753   0.145E-01    0.645E-01
RMM:  15    -0.433888298145E+02   -0.20664E-03   -0.82341E-03  3163   0.656E-01    0.580E-01
RMM:  16    -0.433954713617E+02   -0.66415E-02   -0.13375E-02  3750   0.449E-01    0.683E-01
RMM:  17    -0.433978644924E+02   -0.23931E-02   -0.37565E-03  3528   0.294E-01    0.608E-01
RMM:  18    -0.433974422499E+02    0.42224E-03   -0.11202E-03  3624   0.158E-01    0.655E-01
RMM:  19    -0.433975679165E+02   -0.12567E-03   -0.39363E-04  3233   0.423E-02    0.665E-01
RMM:  20    -0.433978160332E+02   -0.24812E-03   -0.24725E-04  3390   0.864E-02    0.701E-01
RMM:  21    -0.434017160573E+02   -0.39000E-02   -0.10644E-02  3387   0.638E-01    0.974E-01
RMM:  22    -0.434026182483E+02   -0.90219E-03   -0.68372E-03  4255   0.265E-01    0.109E+00
RMM:  23    -0.433968372006E+02    0.57810E-02   -0.10571E-02  3208   0.716E-01    0.669E-01
RMM:  24    -0.433969608213E+02   -0.12362E-03   -0.83679E-03  4085   0.305E-01    0.418E-01
RMM:  25    -0.433967301077E+02    0.23071E-03   -0.22359E-03  4155   0.165E-01    0.290E-01
RMM:  26    -0.433967636948E+02   -0.33587E-04   -0.58873E-04  3895   0.876E-02    0.262E-01
RMM:  27    -0.433962371727E+02    0.52652E-03   -0.31818E-04  3133   0.136E-01    0.314E-01
RMM:  28    -0.433962928516E+02   -0.55679E-04   -0.98702E-05  2421   0.296E-02    0.319E-01
RMM:  29    -0.433971422965E+02   -0.84944E-03   -0.43449E-04  3219   0.128E-01    0.260E-01
RMM:  30    -0.433986213234E+02   -0.14790E-02   -0.36949E-03  3415   0.326E-01    0.206E-01
RMM:  31    -0.433993243051E+02   -0.70298E-03   -0.58188E-03  3841   0.289E-01    0.422E-01
RMM:  32    -0.433997033124E+02   -0.37901E-03   -0.22119E-03  4245   0.141E-01    0.548E-01
RMM:  33    -0.433996322480E+02    0.71064E-04   -0.26009E-04  2889   0.532E-02    0.559E-01
RMM:  34    -0.433994601889E+02    0.17206E-03   -0.21527E-04  3175   0.828E-02    0.533E-01
RMM:  35    -0.433993206552E+02    0.13953E-03   -0.22709E-04  3279   0.649E-02    0.491E-01
RMM:  36    -0.433995927910E+02   -0.27214E-03   -0.91388E-05  2907   0.676E-02    0.508E-01
RMM:  37    -0.433998639398E+02   -0.27115E-03   -0.14445E-04  3184   0.577E-02    0.542E-01
RMM:  38    -0.433998454268E+02    0.18513E-04   -0.23633E-05  1944   0.259E-02    0.545E-01
RMM:  39    -0.433998619867E+02   -0.16560E-04   -0.11798E-05  1819   0.198E-02    0.549E-01
RMM:  40    -0.433998568366E+02    0.51501E-05   -0.61119E-06  1757   0.177E-02

 ----------------------------------------------------------------------------- 
|                                                                             |
|           W    W    AA    RRRRR   N    N  II  N    N   GGGG   !!!           |
|           W    W   A  A   R    R  NN   N  II  NN   N  G    G  !!!           |
|           W    W  A    A  R    R  N N  N  II  N N  N  G       !!!           |
|           W WW W  AAAAAA  RRRRR   N  N N  II  N  N N  G  GGG   !            |
|           WW  WW  A    A  R   R   N   NN  II  N   NN  G    G                |
|           W    W  A    A  R    R  N    N  II  N    N   GGGG   !!!           |
|                                                                             |
|      Your highest band is occupied at some k-points! Unless you are         |
|      performing a calculation for an insulator or semiconductor, without    |
|      unoccupied bands, you have included TOO FEW BANDS!! Please increase    |
|      the parameter NBANDS in file INCAR to ensure that the highest band   |
|      is unoccupied at all k-points. It is always recommended to             |
|      include a few unoccupied bands to accelerate the convergence of        |
|      molecular dynamics runs (even for insulators or semiconductors).       |
|      Because the presence of unoccupied bands improves wavefunction         |
|      prediction, and helps to suppress 'band-crossings.'                    |
|                                                                             |
 ----------------------------------------------------------------------------- 

   5 F= -.43399857E+02 E0= -.43400587E+02  d E =-.739229E-01  mag=     5.2280
 ZBRENT: can't locate minimum, use default step
 trial-energy change:   -0.073923  1 .order   -0.071155   -0.076641   -0.065670
 step:   5.4310(harm=  9.4847)  dis= 0.14614  next Energy=   -43.593628 (dE=-0.268E+00)
 bond charge predicted
       N       E                     dE             d eps       ncg     rms          rms(c)
DAV:   1    -0.432556967307E+02    0.14417E+00   -0.24781E+02  3107   0.962E+01    0.649E+00
RMM:   2    -0.678519631652E+02   -0.24596E+02   -0.54755E+01  3845   0.547E+01    0.491E+01
RMM:   3    -0.522809979663E+02    0.15571E+02   -0.87717E+00  3134   0.281E+01    0.374E+01
RMM:   4    -0.450054575124E+02    0.72755E+01   -0.53956E+00  3153   0.206E+01    0.211E+01
RMM:   5    -0.441144221653E+02    0.89104E+00   -0.22805E+00  3510   0.853E+00    0.132E+01
RMM:   6    -0.436596852093E+02    0.45474E+00   -0.12373E+00  3386   0.722E+00    0.540E+00
RMM:   7    -0.436686512012E+02   -0.89660E-02   -0.56088E-01  3625   0.445E+00    0.576E+00
RMM:   8    -0.435556840750E+02    0.11297E+00   -0.76130E-02  3245   0.231E+00    0.208E+00
RMM:   9    -0.435580842729E+02   -0.24002E-02   -0.82189E-02  3558   0.169E+00    0.193E+00
RMM:  10    -0.435484245043E+02    0.96598E-02   -0.27288E-02  3330   0.120E+00    0.153E+00
RMM:  11    -0.435477278682E+02    0.69664E-03   -0.11114E-02  3933   0.451E-01    0.160E+00
RMM:  12    -0.435463187662E+02    0.14091E-02   -0.30301E-03  3917   0.227E-01    0.156E+00
RMM:  13    -0.435326229223E+02    0.13696E-01   -0.26294E-02  3326   0.947E-01    0.160E+00
RMM:  14    -0.435209563661E+02    0.11667E-01   -0.32545E-02  3574   0.891E-01    0.137E+00
RMM:  15    -0.435195703825E+02    0.13860E-02   -0.66640E-03  4050   0.296E-01    0.148E+00
RMM:  16    -0.435147615943E+02    0.48088E-02   -0.40460E-03  3645   0.279E-01    0.162E+00
RMM:  17    -0.435226136176E+02   -0.78520E-02   -0.11116E-02  3147   0.707E-01    0.136E+00
RMM:  18    -0.435204242565E+02    0.21894E-02   -0.12253E-02  3714   0.523E-01    0.114E+00
RMM:  19    -0.435159111657E+02    0.45131E-02   -0.11485E-01  3299   0.208E+00    0.143E+00
RMM:  20    -0.435229322426E+02   -0.70211E-02   -0.61345E-02  3951   0.958E-01    0.140E+00
RMM:  21    -0.435289527000E+02   -0.60205E-02   -0.20034E-02  4460   0.345E-01    0.145E+00
RMM:  22    -0.435320482924E+02   -0.30956E-02   -0.81243E-03  3189   0.627E-01    0.147E+00
RMM:  23    -0.435303304662E+02    0.17178E-02   -0.11156E-02  3701   0.513E-01    0.149E+00
RMM:  24    -0.435309067914E+02   -0.57633E-03   -0.26429E-03  4247   0.194E-01    0.146E+00
RMM:  25    -0.435302340568E+02    0.67273E-03   -0.58316E-04  3243   0.162E-01    0.142E+00
RMM:  26    -0.435234686234E+02    0.67654E-02   -0.22616E-02  3302   0.943E-01    0.123E+00
RMM:  27    -0.435238011200E+02   -0.33250E-03   -0.10849E-02  4335   0.344E-01    0.126E+00
RMM:  28    -0.435250010096E+02   -0.11999E-02   -0.19098E-03  4141   0.141E-01    0.129E+00
RMM:  29    -0.435255510860E+02   -0.55008E-03   -0.61599E-03  3216   0.538E-01    0.122E+00
RMM:  30    -0.435225652743E+02    0.29858E-02   -0.89494E-02  3305   0.186E+00    0.164E+00
RMM:  31    -0.434678928628E+02    0.54672E-01   -0.46942E-01  3520   0.391E+00    0.316E+00
RMM:  32    -0.435038520130E+02   -0.35959E-01   -0.29130E-01  4318   0.192E+00    0.317E+00
RMM:  33    -0.435247774143E+02   -0.20925E-01   -0.27898E-02  3986   0.599E-01    0.294E+00
RMM:  34    -0.435254220034E+02   -0.64459E-03   -0.68623E-03  3388   0.437E-01    0.268E+00
RMM:  35    -0.435176977569E+02    0.77242E-02   -0.18846E-02  3365   0.811E-01    0.203E+00
RMM:  36    -0.435122356727E+02    0.54621E-02   -0.10579E-02  3833   0.501E-01    0.184E+00
RMM:  37    -0.435158059669E+02   -0.35703E-02   -0.17867E-02  3637   0.725E-01    0.150E+00
RMM:  38    -0.435179772966E+02   -0.21713E-02   -0.96552E-03  4344   0.347E-01    0.142E+00
RMM:  39    -0.435166251647E+02    0.13521E-02   -0.68103E-03  3247   0.571E-01    0.150E+00
RMM:  40    -0.435217737777E+02   -0.51486E-02   -0.27701E-03  3800   0.230E-01    0.127E+00
RMM:  41    -0.435272214812E+02   -0.54477E-02   -0.91432E-03  3261   0.644E-01    0.884E-01
RMM:  42    -0.435297523174E+02   -0.25308E-02   -0.81380E-03  4103   0.371E-01    0.752E-01
RMM:  43    -0.435311006958E+02   -0.13484E-02   -0.25079E-03  4200   0.191E-01    0.712E-01
RMM:  44    -0.435316006486E+02   -0.49995E-03   -0.80225E-04  3927   0.120E-01    0.661E-01
RMM:  45    -0.435306966079E+02    0.90404E-03   -0.97693E-04  3464   0.163E-01    0.596E-01
RMM:  46    -0.435306314602E+02    0.65148E-04   -0.60110E-04  3690   0.817E-02    0.550E-01
RMM:  47    -0.435298646622E+02    0.76680E-03   -0.71768E-04  3548   0.145E-01    0.493E-01
RMM:  48    -0.435300926822E+02   -0.22802E-03   -0.93848E-04  3875   0.123E-01    0.394E-01
RMM:  49    -0.435297236462E+02    0.36904E-03   -0.80261E-04  3715   0.127E-01    0.325E-01
RMM:  50    -0.435296803618E+02    0.43284E-04   -0.52324E-04  3736   0.739E-02    0.274E-01
RMM:  51    -0.435295652745E+02    0.11509E-03   -0.98746E-05  2521   0.475E-02    0.262E-01
RMM:  52    -0.435295735876E+02   -0.83131E-05   -0.11037E-04  2743   0.449E-02    0.237E-01
RMM:  53    -0.435297707038E+02   -0.19712E-03   -0.67924E-05  2233   0.440E-02    0.224E-01
RMM:  54    -0.435301352093E+02   -0.36451E-03   -0.34718E-04  3326   0.117E-01    0.213E-01
RMM:  55    -0.435302156551E+02   -0.80446E-04   -0.25569E-04  3272   0.636E-02    0.206E-01
RMM:  56    -0.435302631984E+02   -0.47543E-04   -0.15813E-04  3026   0.495E-02    0.184E-01
RMM:  57    -0.435302975185E+02   -0.34320E-04   -0.11596E-04  2836   0.479E-02    0.161E-01
RMM:  58    -0.435301586284E+02    0.13889E-03   -0.33830E-04  3433   0.102E-01    0.100E-01
RMM:  59    -0.435302123411E+02   -0.53713E-04   -0.24171E-04  2954   0.532E-02    0.670E-02
RMM:  60    -0.435302273684E+02   -0.15027E-04   -0.95039E-05  2363   0.363E-02

 ----------------------------------------------------------------------------- 
|                                                                             |
|  ADVICE TO THIS USER RUNNING 'VASP/VAMP'   (HEAR YOUR MASTER'S VOICE ...):  |
|                                                                             |
|      Your highest band is occupied at some k-points! Unless you are         |
|      performing a calculation for an insulator or semiconductor, without    |
|      unoccupied bands, you have included TOO FEW BANDS!! Please increase    |
|      the parameter NBANDS in file INCAR to ensure that the highest band   |
|      is unoccupied at all k-points. It is always recommended to             |
|      include a few unoccupied bands to accelerate the convergence of        |
|      molecular dynamics runs (even for insulators or semiconductors).       |
|      Because the presence of unoccupied bands improves wavefunction         |
|      prediction, and helps to suppress 'band-crossings.'                    |
|                                                                             |
 ----------------------------------------------------------------------------- 

   6 F= -.43530227E+02 E0= -.43530394E+02  d E =-.204293E+00  mag=     5.4189
 curvature:  -4.64 expect dE=-0.408E+00 dE for cont linesearch -0.107E-01
 trial: gam= 0.91823 g(F)=  0.879E-01 g(S)=  0.000E+00 ort = 0.130E-01 (trialstep = 0.919E+00)
 search vector abs. value=  0.174E+00
 bond charge predicted
       N       E                     dE             d eps       ncg     rms          rms(c)
DAV:   1    -0.435753916525E+02   -0.45179E-01   -0.27133E+01  3100   0.283E+01    0.171E+00
RMM:   2    -0.474410028467E+02   -0.38656E+01   -0.34213E+00  3501   0.130E+01    0.279E+01
RMM:   3    -0.439072704133E+02    0.35337E+01   -0.53608E-01  3163   0.643E+00    0.861E+00
RMM:   4    -0.436135683426E+02    0.29370E+00   -0.31586E-01  3213   0.433E+00    0.192E+00
RMM:   5    -0.436370354198E+02   -0.23467E-01   -0.19568E-01  3362   0.298E+00    0.292E+00
RMM:   6    -0.436323240361E+02    0.47114E-02   -0.91602E-02  3385   0.199E+00    0.258E+00
RMM:   7    -0.436082377191E+02    0.24086E-01   -0.25358E-02  3317   0.115E+00    0.634E-01
RMM:   8    -0.436082113196E+02    0.26400E-04   -0.11785E-02  3917   0.414E-01    0.672E-01
RMM:   9    -0.436083507047E+02   -0.13939E-03   -0.22970E-03  4315   0.126E-01    0.687E-01
RMM:  10    -0.436089601452E+02   -0.60944E-03   -0.64636E-03  3277   0.589E-01    0.933E-01
RMM:  11    -0.436072752317E+02    0.16849E-02   -0.40303E-03  3257   0.479E-01    0.814E-01
RMM:  12    -0.436061682676E+02    0.11070E-02   -0.60647E-03  3351   0.473E-01    0.495E-01
RMM:  13    -0.436069294491E+02   -0.76118E-03   -0.30922E-03  4047   0.217E-01    0.483E-01
RMM:  14    -0.436067891445E+02    0.14030E-03   -0.76052E-04  3378   0.174E-01    0.468E-01
RMM:  15    -0.436059128625E+02    0.87628E-03   -0.33794E-03  3384   0.337E-01    0.399E-01
RMM:  16    -0.436063648641E+02   -0.45200E-03   -0.24886E-03  3724   0.250E-01    0.398E-01
RMM:  17    -0.436065145320E+02   -0.14967E-03   -0.53739E-04  3882   0.651E-02    0.407E-01
RMM:  18    -0.436057008572E+02    0.81367E-03   -0.19044E-03  3358   0.262E-01    0.440E-01
RMM:  19    -0.436053068296E+02    0.39403E-03   -0.33506E-03  3713   0.281E-01    0.473E-01
RMM:  20    -0.436060819944E+02   -0.77516E-03   -0.67338E-04  3179   0.190E-01    0.389E-01
RMM:  21    -0.436063746452E+02   -0.29265E-03   -0.89033E-04  3637   0.126E-01    0.319E-01
RMM:  22    -0.436064200507E+02   -0.45406E-04   -0.16981E-04  2697   0.359E-02    0.309E-01
RMM:  23    -0.436063404056E+02    0.79645E-04   -0.25646E-04  3367   0.916E-02    0.290E-01
RMM:  24    -0.436063278907E+02    0.12515E-04   -0.71428E-04  3625   0.131E-01    0.281E-01
RMM:  25    -0.436058864809E+02    0.44141E-03   -0.87569E-04  3633   0.152E-01    0.240E-01
RMM:  26    -0.436062807673E+02   -0.39429E-03   -0.11338E-03  3762   0.161E-01    0.206E-01
RMM:  27    -0.436064767514E+02   -0.19598E-03   -0.45835E-04  3267   0.124E-01    0.158E-01
RMM:  28    -0.436063267570E+02    0.14999E-03   -0.67574E-04  3557   0.123E-01    0.129E-01
RMM:  29    -0.436061389234E+02    0.18783E-03   -0.11038E-03  3629   0.160E-01    0.156E-01
RMM:  30    -0.436059251694E+02    0.21375E-03   -0.36648E-04  3548   0.630E-02    0.169E-01
RMM:  31    -0.436059254128E+02   -0.24343E-06   -0.51847E-05  2100   0.330E-02

 ----------------------------------------------------------------------------- 
|                                                                             |
|  ADVICE TO THIS USER RUNNING 'VASP/VAMP'   (HEAR YOUR MASTER'S VOICE ...):  |
|                                                                             |
|      Your highest band is occupied at some k-points! Unless you are         |
|      performing a calculation for an insulator or semiconductor, without    |
|      unoccupied bands, you have included TOO FEW BANDS!! Please increase    |
|      the parameter NBANDS in file INCAR to ensure that the highest band   |
|      is unoccupied at all k-points. It is always recommended to             |
|      include a few unoccupied bands to accelerate the convergence of        |
|      molecular dynamics runs (even for insulators or semiconductors).       |
|      Because the presence of unoccupied bands improves wavefunction         |
|      prediction, and helps to suppress 'band-crossings.'                    |
|                                                                             |
 ----------------------------------------------------------------------------- 

   7 F= -.43605925E+02 E0= -.43605702E+02  d E =-.756980E-01  mag=     5.3944
 trial-energy change:   -0.075698  1 .order   -0.076370   -0.091771   -0.060969
 step:   2.7383(harm=  2.7383)  dis= 0.09804  next Energy=   -43.666938 (dE=-0.137E+00)
 bond charge predicted
       N       E                     dE             d eps       ncg     rms          rms(c)
DAV:   1    -0.435109676776E+02    0.94957E-01   -0.10991E+02  3100   0.605E+01    0.338E+00
RMM:   2    -0.542891614501E+02   -0.10778E+02   -0.11980E+01  3486   0.260E+01    0.361E+01
RMM:   3    -0.444015920568E+02    0.98876E+01   -0.17656E+00  3122   0.128E+01    0.122E+01
RMM:   4    -0.437470139580E+02    0.65458E+00   -0.93647E-01  3209   0.742E+00    0.535E+00
RMM:   5    -0.437662429405E+02   -0.19229E-01   -0.62080E-01  3395   0.531E+00    0.533E+00
RMM:   6    -0.437116137864E+02    0.54629E-01   -0.17579E-01  3469   0.264E+00    0.348E+00
RMM:   7    -0.436805002985E+02    0.31113E-01   -0.62082E-02  3510   0.143E+00    0.160E+00
RMM:   8    -0.436889867392E+02   -0.84864E-02   -0.34329E-02  3479   0.116E+00    0.224E+00
RMM:   9    -0.436815718553E+02    0.74149E-02   -0.13874E-02  3602   0.650E-01    0.170E+00
RMM:  10    -0.436774933227E+02    0.40785E-02   -0.87100E-03  3673   0.510E-01    0.156E+00
RMM:  11    -0.436709837831E+02    0.65095E-02   -0.66281E-03  3389   0.534E-01    0.122E+00
RMM:  12    -0.436627313059E+02    0.82525E-02   -0.33480E-02  3320   0.112E+00    0.153E+00
RMM:  13    -0.436573819566E+02    0.53493E-02   -0.16986E-02  3752   0.585E-01    0.100E+00
RMM:  14    -0.436573445082E+02    0.37448E-04   -0.59415E-03  3675   0.364E-01    0.115E+00
RMM:  15    -0.436528677980E+02    0.44767E-02   -0.11340E-02  3181   0.802E-01    0.688E-01
RMM:  16    -0.436554961379E+02   -0.26283E-02   -0.15699E-02  3542   0.653E-01    0.306E-01
RMM:  17    -0.436589817991E+02   -0.34857E-02   -0.46389E-03  4021   0.279E-01    0.302E-01
RMM:  18    -0.436596459543E+02   -0.66416E-03   -0.11227E-03  4016   0.113E-01    0.338E-01
RMM:  19    -0.436590365147E+02    0.60944E-03   -0.27819E-03  3186   0.313E-01    0.329E-01
RMM:  20    -0.436560580114E+02    0.29785E-02   -0.45870E-03  3579   0.274E-01    0.210E-01
RMM:  21    -0.436580361109E+02   -0.19781E-02   -0.20651E-03  3547   0.254E-01    0.138E-01
RMM:  22    -0.436584674954E+02   -0.43138E-03   -0.76688E-04  3919   0.753E-02    0.140E-01
RMM:  23    -0.436578349141E+02    0.63258E-03   -0.22858E-04  3188   0.735E-02    0.156E-01
RMM:  24    -0.436580307216E+02   -0.19581E-03   -0.70987E-05  2174   0.300E-02    0.157E-01
RMM:  25    -0.436571812397E+02    0.84948E-03   -0.17356E-04  2938   0.785E-02    0.166E-01
RMM:  26    -0.436552786256E+02    0.19026E-02   -0.97873E-04  3400   0.168E-01    0.206E-01
RMM:  27    -0.436571480210E+02   -0.18694E-02   -0.64553E-04  3744   0.102E-01    0.239E-01
RMM:  28    -0.436601104505E+02   -0.29624E-02   -0.68454E-04  3125   0.145E-01    0.175E-01
RMM:  29    -0.436613525844E+02   -0.12421E-02   -0.10086E-03  3536   0.134E-01    0.914E-02
RMM:  30    -0.436618078671E+02   -0.45528E-03   -0.49794E-04  3632   0.770E-02    0.487E-02
RMM:  31    -0.436620022987E+02   -0.19443E-03   -0.14639E-04  2654   0.426E-02    0.430E-02
RMM:  32    -0.436620989295E+02   -0.96631E-04   -0.51326E-05  2114   0.343E-02    0.464E-02
RMM:  33    -0.436621613451E+02   -0.62416E-04   -0.29983E-05  1895   0.297E-02    0.518E-02
RMM:  34    -0.436622190318E+02   -0.57687E-04   -0.23344E-05  1835   0.307E-02    0.461E-02
RMM:  35    -0.436622907641E+02   -0.71732E-04   -0.28004E-05  1897   0.282E-02    0.458E-02
RMM:  36    -0.436623154788E+02   -0.24715E-04   -0.17259E-05  1786   0.269E-02    0.377E-02
RMM:  37    -0.436623221787E+02   -0.66999E-05   -0.12856E-05  1780   0.175E-02

 ----------------------------------------------------------------------------- 
|                                                                             |
|  ADVICE TO THIS USER RUNNING 'VASP/VAMP'   (HEAR YOUR MASTER'S VOICE ...):  |
|                                                                             |
|      Your highest band is occupied at some k-points! Unless you are         |
|      performing a calculation for an insulator or semiconductor, without    |
|      unoccupied bands, you have included TOO FEW BANDS!! Please increase    |
|      the parameter NBANDS in file INCAR to ensure that the highest band   |
|      is unoccupied at all k-points. It is always recommended to             |
|      include a few unoccupied bands to accelerate the convergence of        |
|      molecular dynamics runs (even for insulators or semiconductors).       |
|      Because the presence of unoccupied bands improves wavefunction         |
|      prediction, and helps to suppress 'band-crossings.'                    |
|                                                                             |
 ----------------------------------------------------------------------------- 

   8 F= -.43662322E+02 E0= -.43662057E+02  d E =-.132095E+00  mag=     5.2495
 curvature:  -2.38 expect dE=-0.945E-01 dE for cont linesearch -0.667E-03
 trial: gam= 0.63332 g(F)=  0.397E-01 g(S)=  0.000E+00 ort =-0.697E-02 (trialstep = 0.128E+01)
 search vector abs. value=  0.101E+00
 bond charge predicted
       N       E                     dE             d eps       ncg     rms          rms(c)
DAV:   1    -0.436411282090E+02    0.21187E-01   -0.30366E+01  3100   0.306E+01    0.218E+00
RMM:   2    -0.458308775533E+02   -0.21897E+01   -0.28450E+00  3361   0.122E+01    0.210E+01
RMM:   3    -0.441665191453E+02    0.16644E+01   -0.42337E-01  3157   0.575E+00    0.111E+01
RMM:   4    -0.437194583132E+02    0.44706E+00   -0.54969E-01  3179   0.537E+00    0.256E+00
RMM:   5    -0.437453774981E+02   -0.25919E-01   -0.15774E-01  3294   0.293E+00    0.343E+00
RMM:   6    -0.437084753289E+02    0.36902E-01   -0.54563E-02  3215   0.198E+00    0.125E+00
RMM:   7    -0.437064841868E+02    0.19911E-02   -0.26538E-02  3522   0.985E-01    0.964E-01
RMM:   8    -0.437094558471E+02   -0.29717E-02   -0.19038E-02  3672   0.814E-01    0.131E+00
RMM:   9    -0.437034257347E+02    0.60301E-02   -0.73727E-03  3215   0.734E-01    0.538E-01
RMM:  10    -0.437037545641E+02   -0.32883E-03   -0.40139E-03  4329   0.183E-01    0.595E-01
RMM:  11    -0.437041574038E+02   -0.40284E-03   -0.46495E-03  3307   0.496E-01    0.832E-01
RMM:  12    -0.436998665523E+02    0.42909E-02   -0.56906E-03  3256   0.510E-01    0.630E-01
RMM:  13    -0.436981596771E+02    0.17069E-02   -0.29442E-03  3617   0.306E-01    0.410E-01
RMM:  14    -0.436981953207E+02   -0.35644E-04   -0.90744E-04  4066   0.847E-02    0.405E-01
RMM:  15    -0.436971950473E+02    0.10003E-02   -0.36450E-04  3398   0.113E-01    0.445E-01
RMM:  16    -0.436959480100E+02    0.12470E-02   -0.33024E-04  3526   0.904E-02    0.431E-01
RMM:  17    -0.436957541929E+02    0.19382E-03   -0.42990E-04  3260   0.139E-01    0.416E-01
RMM:  18    -0.436937285707E+02    0.20256E-02   -0.46152E-04  3173   0.156E-01    0.424E-01
RMM:  19    -0.436900230452E+02    0.37055E-02   -0.35839E-03  3444   0.335E-01    0.469E-01
RMM:  20    -0.436921116668E+02   -0.20886E-02   -0.12449E-03  4077   0.131E-01    0.492E-01
RMM:  21    -0.436938158063E+02   -0.17041E-02   -0.34667E-04  3237   0.115E-01    0.460E-01
RMM:  22    -0.436923990803E+02    0.14167E-02   -0.24496E-04  3226   0.106E-01    0.470E-01
RMM:  23    -0.436945161694E+02   -0.21171E-02   -0.24490E-03  3391   0.278E-01    0.561E-01
RMM:  24    -0.437008623794E+02   -0.63462E-02   -0.23013E-03  3552   0.186E-01    0.614E-01
RMM:  25    -0.437038553489E+02   -0.29930E-02   -0.29907E-03  3572   0.207E-01    0.679E-01
RMM:  26    -0.437041250720E+02   -0.26972E-03   -0.11929E-03  3873   0.104E-01    0.667E-01
RMM:  27    -0.437040445075E+02    0.80564E-04   -0.48965E-04  3078   0.551E-02    0.647E-01
RMM:  28    -0.437037219392E+02    0.32257E-03   -0.13923E-04  2776   0.588E-02    0.610E-01
RMM:  29    -0.437033822124E+02    0.33973E-03   -0.19422E-04  3221   0.636E-02    0.559E-01
RMM:  30    -0.437030645385E+02    0.31767E-03   -0.23580E-04  3384   0.724E-02    0.501E-01
RMM:  31    -0.437029214295E+02    0.14311E-03   -0.13923E-04  2939   0.487E-02    0.458E-01
RMM:  32    -0.437028143519E+02    0.10708E-03   -0.97829E-05  2876   0.481E-02    0.419E-01
RMM:  33    -0.437026509183E+02    0.16343E-03   -0.23058E-04  3487   0.741E-02    0.359E-01
RMM:  34    -0.437023862236E+02    0.26469E-03   -0.57453E-04  3614   0.129E-01    0.253E-01
RMM:  35    -0.437023245651E+02    0.61658E-04   -0.49040E-04  3909   0.832E-02    0.177E-01
RMM:  36    -0.437022879071E+02    0.36658E-04   -0.23865E-04  3422   0.630E-02    0.118E-01
RMM:  37    -0.437022985525E+02   -0.10645E-04   -0.83207E-05  2483   0.364E-02    0.935E-02
RMM:  38    -0.437023054713E+02   -0.69187E-05   -0.88722E-05  2818   0.460E-02

 ----------------------------------------------------------------------------- 
|                                                                             |
|  ADVICE TO THIS USER RUNNING 'VASP/VAMP'   (HEAR YOUR MASTER'S VOICE ...):  |
|                                                                             |
|      Your highest band is occupied at some k-points! Unless you are         |
|      performing a calculation for an insulator or semiconductor, without    |
|      unoccupied bands, you have included TOO FEW BANDS!! Please increase    |
|      the parameter NBANDS in file INCAR to ensure that the highest band   |
|      is unoccupied at all k-points. It is always recommended to             |
|      include a few unoccupied bands to accelerate the convergence of        |
|      molecular dynamics runs (even for insulators or semiconductors).       |
|      Because the presence of unoccupied bands improves wavefunction         |
|      prediction, and helps to suppress 'band-crossings.'                    |
|                                                                             |
 ----------------------------------------------------------------------------- 

   9 F= -.43702305E+02 E0= -.43701878E+02  d E =-.399833E-01  mag=     5.1718
 ZBRENT: can't locate minimum, use default step
 trial-energy change:   -0.039983  1 .order   -0.040204   -0.045205   -0.035203
 step:   5.1316(harm=  5.7980)  dis= 0.07800  next Energy=   -43.764472 (dE=-0.102E+00)
 bond charge predicted
       N       E                     dE             d eps       ncg     rms          rms(c)
DAV:   1    -0.430876001773E+02    0.61470E+00   -0.29545E+02  3100   0.110E+02    0.700E+00
RMM:   2    -0.594175712344E+02   -0.16330E+02   -0.30850E+01  3378   0.419E+01    0.425E+01
RMM:   3    -0.492687739254E+02    0.10149E+02   -0.53284E+00  3122   0.225E+01    0.343E+01
RMM:   4    -0.438158872639E+02    0.54529E+01   -0.41073E+00  3149   0.175E+01    0.724E+00
RMM:   5    -0.453760215773E+02   -0.15601E+01   -0.42736E+00  3389   0.132E+01    0.187E+01
RMM:   6    -0.439090393588E+02    0.14670E+01   -0.73390E-01  3119   0.846E+00    0.691E+00
RMM:   7    -0.438048889429E+02    0.10415E+00   -0.38900E-01  3360   0.426E+00    0.384E+00
RMM:   8    -0.437886733493E+02    0.16216E-01   -0.18671E-01  3875   0.212E+00    0.266E+00
RMM:   9    -0.437888456351E+02   -0.17229E-03   -0.11205E-01  3287   0.248E+00    0.247E+00
RMM:  10    -0.437839872926E+02    0.48583E-02   -0.58282E-02  3308   0.179E+00    0.238E+00
RMM:  11    -0.437786149405E+02    0.53724E-02   -0.47405E-02  3785   0.107E+00    0.191E+00
RMM:  12    -0.437808057953E+02   -0.21909E-02   -0.11050E-02  4148   0.347E-01    0.218E+00
RMM:  13    -0.437863138790E+02   -0.55081E-02   -0.25473E-02  3350   0.102E+00    0.225E+00
RMM:  14    -0.437611271468E+02    0.25187E-01   -0.53534E-02  3138   0.182E+00    0.198E+00
RMM:  15    -0.437373596338E+02    0.23768E-01   -0.13666E-01  3535   0.176E+00    0.130E+00
RMM:  16    -0.437327609718E+02    0.45987E-02   -0.53358E-02  4222   0.721E-01    0.100E+00
RMM:  17    -0.437328992689E+02   -0.13830E-03   -0.58913E-03  3962   0.246E-01    0.102E+00
RMM:  18    -0.437255373875E+02    0.73619E-02   -0.19964E-02  3327   0.920E-01    0.910E-01
RMM:  19    -0.437379798982E+02   -0.12443E-01   -0.23620E-02  3741   0.713E-01    0.885E-01
RMM:  20    -0.437495766630E+02   -0.11597E-01   -0.20949E-02  3393   0.741E-01    0.533E-01
RMM:  21    -0.437523659047E+02   -0.27892E-02   -0.17120E-02  3974   0.506E-01    0.337E-01
RMM:  22    -0.437521357358E+02    0.23017E-03   -0.20434E-03  3651   0.203E-01    0.324E-01
RMM:  23    -0.437522341911E+02   -0.98455E-04   -0.56280E-04  3652   0.613E-02    0.330E-01
RMM:  24    -0.437522790682E+02   -0.44877E-04   -0.24375E-03  3403   0.277E-01    0.356E-01
RMM:  25    -0.437521943724E+02    0.84696E-04   -0.80414E-03  3625   0.438E-01    0.436E-01
RMM:  26    -0.437528822990E+02   -0.68793E-03   -0.44075E-03  4259   0.222E-01    0.523E-01
RMM:  27    -0.437528725085E+02    0.97905E-05   -0.57841E-04  3696   0.933E-02    0.556E-01
RMM:  28    -0.437519074023E+02    0.96511E-03   -0.50643E-04  3205   0.160E-01    0.528E-01
RMM:  29    -0.437513539439E+02    0.55346E-03   -0.22280E-03  3439   0.275E-01    0.464E-01
RMM:  30    -0.437522354205E+02   -0.88148E-03   -0.12791E-03  3698   0.158E-01    0.417E-01
RMM:  31    -0.437530428535E+02   -0.80743E-03   -0.34737E-04  3268   0.102E-01    0.410E-01
RMM:  32    -0.437535388010E+02   -0.49595E-03   -0.28519E-04  3490   0.738E-02    0.398E-01
RMM:  33    -0.437536197442E+02   -0.80943E-04   -0.12653E-04  2663   0.447E-02    0.388E-01
RMM:  34    -0.437536062208E+02    0.13523E-04   -0.21210E-04  3298   0.648E-02    0.369E-01
RMM:  35    -0.437537089651E+02   -0.10274E-03   -0.88289E-05  2418   0.302E-02    0.369E-01
RMM:  36    -0.437537763746E+02   -0.67410E-04   -0.51365E-05  2146   0.273E-02    0.368E-01
RMM:  37    -0.437538046412E+02   -0.28267E-04   -0.24825E-05  1841   0.214E-02    0.371E-01
RMM:  38    -0.437538186721E+02   -0.14031E-04   -0.95101E-06  1720   0.180E-02    0.373E-01
RMM:  39    -0.437538618572E+02   -0.43185E-04   -0.11674E-05  1754   0.199E-02    0.378E-01
RMM:  40    -0.437538991498E+02   -0.37293E-04   -0.12312E-05  1740   0.170E-02    0.384E-01
RMM:  41    -0.437538870312E+02    0.12119E-04   -0.47209E-06  1678   0.164E-02    0.384E-01
RMM:  42    -0.437538788883E+02    0.81430E-05   -0.24697E-06  1195   0.909E-03

 ----------------------------------------------------------------------------- 
|                                                                             |
|  ADVICE TO THIS USER RUNNING 'VASP/VAMP'   (HEAR YOUR MASTER'S VOICE ...):  |
|                                                                             |
|      Your highest band is occupied at some k-points! Unless you are         |
|      performing a calculation for an insulator or semiconductor, without    |
|      unoccupied bands, you have included TOO FEW BANDS!! Please increase    |
|      the parameter NBANDS in file INCAR to ensure that the highest band   |
|      is unoccupied at all k-points. It is always recommended to             |
|      include a few unoccupied bands to accelerate the convergence of        |
|      molecular dynamics runs (even for insulators or semiconductors).       |
|      Because the presence of unoccupied bands improves wavefunction         |
|      prediction, and helps to suppress 'band-crossings.'                    |
|                                                                             |
 ----------------------------------------------------------------------------- 

  10 F= -.43753879E+02 E0= -.43753875E+02  d E =-.915567E-01  mag=     5.0409
 curvature:  -8.09 expect dE=-0.350E+00 dE for cont linesearch -0.176E-02
 trial: gam= 0.66372 g(F)=  0.433E-01 g(S)=  0.000E+00 ort =-0.467E-02 (trialstep = 0.205E+01)
 search vector abs. value=  0.814E-01
 bond charge predicted
       N       E                     dE             d eps       ncg     rms          rms(c)
DAV:   1    -0.437214265382E+02    0.32460E-01   -0.63860E+01  3100   0.451E+01    0.303E+00
RMM:   2    -0.498722624292E+02   -0.61508E+01   -0.81110E+00  3295   0.221E+01    0.322E+01
RMM:   3    -0.452039912534E+02    0.46683E+01   -0.12732E+00  3156   0.102E+01    0.191E+01
RMM:   4    -0.437925521669E+02    0.14114E+01   -0.10853E+00  3158   0.877E+00    0.167E+00
RMM:   5    -0.439906259595E+02   -0.19807E+00   -0.56544E-01  3740   0.365E+00    0.673E+00
RMM:   6    -0.438199835617E+02    0.17064E+00   -0.12019E-01  3189   0.283E+00    0.825E-01
RMM:   7    -0.438418392194E+02   -0.21856E-01   -0.91577E-02  3577   0.180E+00    0.217E+00
RMM:   8    -0.438262943102E+02    0.15545E-01   -0.45793E-02  3385   0.143E+00    0.141E+00
RMM:   9    -0.438237626070E+02    0.25317E-02   -0.17226E-02  3356   0.944E-01    0.113E+00
RMM:  10    -0.438230738843E+02    0.68872E-03   -0.81050E-03  4176   0.318E-01    0.117E+00
RMM:  11    -0.438226347724E+02    0.43911E-03   -0.91200E-03  3212   0.635E-01    0.109E+00
RMM:  12    -0.438180519666E+02    0.45828E-02   -0.32910E-02  3344   0.101E+00    0.786E-01
RMM:  13    -0.438123021696E+02    0.57498E-02   -0.35858E-02  3767   0.773E-01    0.486E-01
RMM:  14    -0.438169708987E+02   -0.46687E-02   -0.43415E-03  3430   0.353E-01    0.518E-01
RMM:  15    -0.438175169885E+02   -0.54609E-03   -0.19644E-03  4054   0.148E-01    0.474E-01
RMM:  16    -0.438134759248E+02    0.40411E-02   -0.54310E-03  3216   0.387E-01    0.358E-01
RMM:  17    -0.438056898622E+02    0.77861E-02   -0.99455E-03  3407   0.554E-01    0.258E-01
RMM:  18    -0.438123009038E+02   -0.66110E-02   -0.27200E-03  3399   0.291E-01    0.225E-01
RMM:  19    -0.438137862769E+02   -0.14854E-02   -0.10189E-03  3986   0.112E-01    0.252E-01
RMM:  20    -0.438123754866E+02    0.14108E-02   -0.82895E-04  3287   0.197E-01    0.266E-01
RMM:  21    -0.438119215106E+02    0.45398E-03   -0.19971E-03  3381   0.273E-01    0.260E-01
RMM:  22    -0.438127951449E+02   -0.87363E-03   -0.32075E-03  3742   0.286E-01    0.250E-01
RMM:  23    -0.438140720150E+02   -0.12769E-02   -0.66042E-04  4025   0.104E-01    0.241E-01
RMM:  24    -0.438142114281E+02   -0.13941E-03   -0.19126E-04  3047   0.530E-02    0.245E-01
RMM:  25    -0.438146417539E+02   -0.43033E-03   -0.42135E-04  3190   0.139E-01    0.252E-01
RMM:  26    -0.438148057343E+02   -0.16398E-03   -0.18371E-03  3411   0.266E-01    0.254E-01
RMM:  27    -0.438157330855E+02   -0.92735E-03   -0.91962E-04  3351   0.187E-01    0.220E-01
RMM:  28    -0.438166891962E+02   -0.95611E-03   -0.11447E-03  3640   0.177E-01    0.117E-01
RMM:  29    -0.438174687050E+02   -0.77951E-03   -0.74548E-04  3967   0.106E-01    0.678E-02
RMM:  30    -0.438178636137E+02   -0.39491E-03   -0.24745E-04  2955   0.611E-02    0.308E-02
RMM:  31    -0.438179400532E+02   -0.76439E-04   -0.81535E-05  2327   0.405E-02    0.146E-02
RMM:  32    -0.438180037347E+02   -0.63681E-04   -0.24118E-05  1928   0.252E-02    0.125E-02
RMM:  33    -0.438180215773E+02   -0.17843E-04   -0.14016E-05  1830   0.248E-02    0.762E-03
RMM:  34    -0.438180501015E+02   -0.28524E-04   -0.12524E-05  1811   0.189E-02    0.681E-03
RMM:  35    -0.438180507986E+02   -0.69708E-06   -0.67921E-06  1738   0.182E-02

 ----------------------------------------------------------------------------- 
|                                                                             |
|  ADVICE TO THIS USER RUNNING 'VASP/VAMP'   (HEAR YOUR MASTER'S VOICE ...):  |
|                                                                             |
|      Your highest band is occupied at some k-points! Unless you are         |
|      performing a calculation for an insulator or semiconductor, without    |
|      unoccupied bands, you have included TOO FEW BANDS!! Please increase    |
|      the parameter NBANDS in file INCAR to ensure that the highest band   |
|      is unoccupied at all k-points. It is always recommended to             |
|      include a few unoccupied bands to accelerate the convergence of        |
|      molecular dynamics runs (even for insulators or semiconductors).       |
|      Because the presence of unoccupied bands improves wavefunction         |
|      prediction, and helps to suppress 'band-crossings.'                    |
|                                                                             |
 ----------------------------------------------------------------------------- 

  11 F= -.43818051E+02 E0= -.43818006E+02  d E =-.641719E-01  mag=     5.0028
 trial-energy change:   -0.064172  1 .order   -0.063033   -0.082536   -0.043531
 step:   3.7843(harm=  4.3435)  dis= 0.06709  next Energy=   -43.837096 (dE=-0.832E-01)
 bond charge predicted
       N       E                     dE             d eps       ncg     rms          rms(c)
DAV:   1    -0.437721281692E+02    0.45922E-01   -0.45196E+01  3100   0.376E+01    0.258E+00
RMM:   2    -0.488421360944E+02   -0.50700E+01   -0.63133E+00  3314   0.191E+01    0.297E+01
RMM:   3    -0.449150109299E+02    0.39271E+01   -0.93640E-01  3161   0.873E+00    0.167E+01
RMM:   4    -0.438145952136E+02    0.11004E+01   -0.82104E-01  3150   0.766E+00    0.132E+00
RMM:   5    -0.438705605563E+02   -0.55965E-01   -0.34021E-01  4084   0.221E+00    0.309E+00
RMM:   6    -0.438399325225E+02    0.30628E-01   -0.38972E-02  3410   0.134E+00    0.776E-01
RMM:   7    -0.438581844909E+02   -0.18252E-01   -0.50335E-02  3518   0.136E+00    0.239E+00
RMM:   8    -0.438374416423E+02    0.20743E-01   -0.11670E-02  3149   0.976E-01    0.951E-01
RMM:   9    -0.438379738855E+02   -0.53224E-03   -0.70910E-03  4334   0.216E-01    0.973E-01
RMM:  10    -0.438391015931E+02   -0.11277E-02   -0.48818E-03  3302   0.508E-01    0.955E-01
RMM:  11    -0.438375932918E+02    0.15083E-02   -0.51613E-03  3153   0.639E-01    0.836E-01
RMM:  12    -0.438363776617E+02    0.12156E-02   -0.20850E-02  3321   0.968E-01    0.718E-01
RMM:  13    -0.438346706148E+02    0.17070E-02   -0.13853E-02  4069   0.502E-01    0.508E-01
RMM:  14    -0.438364628270E+02   -0.17922E-02   -0.55445E-03  3950   0.316E-01    0.593E-01
RMM:  15    -0.438328072244E+02    0.36556E-02   -0.56263E-03  3160   0.582E-01    0.454E-01
RMM:  16    -0.438341620275E+02   -0.13548E-02   -0.29363E-02  3551   0.866E-01    0.497E-01
RMM:  17    -0.438372742116E+02   -0.31122E-02   -0.10236E-02  4032   0.403E-01    0.563E-01
RMM:  18    -0.438354658841E+02    0.18083E-02   -0.22606E-03  3174   0.354E-01    0.364E-01
RMM:  19    -0.438336210623E+02    0.18448E-02   -0.49609E-03  3578   0.334E-01    0.273E-01
RMM:  20    -0.438345201014E+02   -0.89904E-03   -0.56111E-04  3414   0.129E-01    0.239E-01
RMM:  21    -0.438361825165E+02   -0.16624E-02   -0.25529E-03  3219   0.315E-01    0.242E-01
RMM:  22    -0.438372096348E+02   -0.10271E-02   -0.51818E-03  3714   0.344E-01    0.346E-01
RMM:  23    -0.438361577571E+02    0.10519E-02   -0.10462E-03  3118   0.238E-01    0.283E-01
RMM:  24    -0.438359181640E+02    0.23959E-03   -0.40797E-04  3515   0.730E-02    0.246E-01
RMM:  25    -0.438359310147E+02   -0.12851E-04   -0.53946E-05  2151   0.268E-02    0.245E-01
RMM:  26    -0.438359044332E+02    0.26581E-04   -0.77835E-06  1778   0.191E-02    0.242E-01
RMM:  27    -0.438359749664E+02   -0.70533E-04   -0.71126E-06  1766   0.210E-02    0.246E-01
RMM:  28    -0.438357344136E+02    0.24055E-03   -0.20108E-05  1838   0.308E-02    0.242E-01
RMM:  29    -0.438356507830E+02    0.83631E-04   -0.84938E-06  1751   0.121E-02    0.239E-01
RMM:  30    -0.438356077634E+02    0.43020E-04   -0.20550E-05  1832   0.293E-02    0.239E-01
RMM:  31    -0.438353963698E+02    0.21139E-03   -0.10747E-04  2923   0.622E-02    0.226E-01
RMM:  32    -0.438352386034E+02    0.15777E-03   -0.14737E-04  3024   0.614E-02    0.197E-01
RMM:  33    -0.438353533597E+02   -0.11476E-03   -0.53221E-04  3482   0.133E-01    0.129E-01
RMM:  34    -0.438360512711E+02   -0.69791E-03   -0.62123E-04  3862   0.971E-02    0.749E-02
RMM:  35    -0.438366031612E+02   -0.55189E-03   -0.20247E-04  2681   0.558E-02    0.651E-02
RMM:  36    -0.438367042956E+02   -0.10113E-03   -0.95712E-05  2389   0.340E-02    0.517E-02
RMM:  37    -0.438367318336E+02   -0.27538E-04   -0.60201E-05  2327   0.325E-02    0.389E-02
RMM:  38    -0.438367295420E+02    0.22916E-05   -0.69413E-05  2485   0.374E-02

 ----------------------------------------------------------------------------- 
|                                                                             |
|  ADVICE TO THIS USER RUNNING 'VASP/VAMP'   (HEAR YOUR MASTER'S VOICE ...):  |
|                                                                             |
|      Your highest band is occupied at some k-points! Unless you are         |
|      performing a calculation for an insulator or semiconductor, without    |
|      unoccupied bands, you have included TOO FEW BANDS!! Please increase    |
|      the parameter NBANDS in file INCAR to ensure that the highest band   |
|      is unoccupied at all k-points. It is always recommended to             |
|      include a few unoccupied bands to accelerate the convergence of        |
|      molecular dynamics runs (even for insulators or semiconductors).       |
|      Because the presence of unoccupied bands improves wavefunction         |
|      prediction, and helps to suppress 'band-crossings.'                    |
|                                                                             |
 ----------------------------------------------------------------------------- 

  12 F= -.43836730E+02 E0= -.43836997E+02  d E =-.828507E-01  mag=     5.0227
 curvature:  -4.13 expect dE=-0.763E-01 dE for cont linesearch -0.116E-04
 trial: gam= 0.23338 g(F)=  0.185E-01 g(S)=  0.000E+00 ort =-0.478E-03 (trialstep = 0.240E+01)
 search vector abs. value=  0.227E-01
 bond charge predicted
       N       E                     dE             d eps       ncg     rms          rms(c)
DAV:   1    -0.438334828695E+02    0.32490E-02   -0.24293E+01  3100   0.262E+01    0.188E+00
RMM:   2    -0.482104607054E+02   -0.43770E+01   -0.40606E+00  3477   0.148E+01    0.288E+01
RMM:   3    -0.442720018688E+02    0.39385E+01   -0.69010E-01  3147   0.745E+00    0.997E+00
RMM:   4    -0.438654089815E+02    0.40659E+00   -0.36554E-01  3226   0.466E+00    0.196E+00
RMM:   5    -0.438793588375E+02   -0.13950E-01   -0.20085E-01  3358   0.308E+00    0.242E+00
RMM:   6    -0.438705230000E+02    0.88358E-02   -0.85637E-02  3476   0.179E+00    0.173E+00
RMM:   7    -0.438594496858E+02    0.11073E-01   -0.22366E-02  3422   0.912E-01    0.451E-01
RMM:   8    -0.438618165263E+02   -0.23668E-02   -0.12004E-02  3526   0.664E-01    0.100E+00
RMM:   9    -0.438585217006E+02    0.32948E-02   -0.55345E-03  3292   0.569E-01    0.432E-01
RMM:  10    -0.438569395478E+02    0.15822E-02   -0.62450E-03  3673   0.360E-01    0.444E-01
RMM:  11    -0.438569005486E+02    0.38999E-04   -0.18373E-03  4193   0.110E-01    0.482E-01
RMM:  12    -0.438529483032E+02    0.39522E-02   -0.19853E-03  3247   0.240E-01    0.558E-01
RMM:  13    -0.438547423332E+02   -0.17940E-02   -0.46865E-03  3253   0.407E-01    0.390E-01
RMM:  14    -0.438565420860E+02   -0.17998E-02   -0.28483E-03  3926   0.184E-01    0.324E-01
RMM:  15    -0.438548278662E+02    0.17142E-02   -0.42351E-04  3190   0.111E-01    0.331E-01
RMM:  16    -0.438518363188E+02    0.29915E-02   -0.13059E-03  3336   0.183E-01    0.338E-01
RMM:  17    -0.438543703689E+02   -0.25341E-02   -0.22874E-03  3421   0.271E-01    0.335E-01
RMM:  18    -0.438564267295E+02   -0.20564E-02   -0.14021E-03  4106   0.122E-01    0.314E-01
RMM:  19    -0.438546207765E+02    0.18060E-02   -0.55577E-04  3490   0.109E-01    0.355E-01
RMM:  20    -0.438542926441E+02    0.32813E-03   -0.26324E-04  3435   0.807E-02    0.369E-01
RMM:  21    -0.438572635094E+02   -0.29709E-02   -0.93843E-04  3259   0.139E-01    0.343E-01
RMM:  22    -0.438589040461E+02   -0.16405E-02   -0.90732E-04  3575   0.101E-01    0.320E-01
RMM:  23    -0.438591299048E+02   -0.22586E-03   -0.71093E-04  3279   0.129E-01    0.293E-01
RMM:  24    -0.438591956294E+02   -0.65725E-04   -0.13332E-04  2839   0.756E-02    0.302E-01
RMM:  25    -0.438592784038E+02   -0.82774E-04   -0.39652E-04  3428   0.115E-01    0.304E-01
RMM:  26    -0.438590913142E+02    0.18709E-03   -0.31656E-04  3293   0.852E-02    0.279E-01
RMM:  27    -0.438587262793E+02    0.36503E-03   -0.17230E-04  2845   0.592E-02    0.251E-01
RMM:  28    -0.438586543588E+02    0.71921E-04   -0.59315E-05  2231   0.386E-02    0.237E-01
RMM:  29    -0.438586471683E+02    0.71905E-05   -0.34051E-05  2065   0.290E-02

 ----------------------------------------------------------------------------- 
|                                                                             |
|  ADVICE TO THIS USER RUNNING 'VASP/VAMP'   (HEAR YOUR MASTER'S VOICE ...):  |
|                                                                             |
|      Your highest band is occupied at some k-points! Unless you are         |
|      performing a calculation for an insulator or semiconductor, without    |
|      unoccupied bands, you have included TOO FEW BANDS!! Please increase    |
|      the parameter NBANDS in file INCAR to ensure that the highest band   |
|      is unoccupied at all k-points. It is always recommended to             |
|      include a few unoccupied bands to accelerate the convergence of        |
|      molecular dynamics runs (even for insulators or semiconductors).       |
|      Because the presence of unoccupied bands improves wavefunction         |
|      prediction, and helps to suppress 'band-crossings.'                    |
|                                                                             |
 ----------------------------------------------------------------------------- 

  13 F= -.43858647E+02 E0= -.43859181E+02  d E =-.219176E-01  mag=     4.9916
 trial-energy change:   -0.021918  1 .order   -0.022807   -0.043999   -0.001616
 step:   2.5043(harm=  2.4904)  dis= 0.04905  next Energy=   -43.858683 (dE=-0.220E-01)
 bond charge predicted
       N       E                     dE             d eps       ncg     rms          rms(c)
DAV:   1    -0.438585647708E+02    0.89588E-04   -0.46410E-02  3240   0.113E+00    0.233E-01
RMM:   2    -0.438847954683E+02   -0.26231E-01   -0.22687E-02  3414   0.983E-01    0.275E+00
RMM:   3    -0.438614364006E+02    0.23359E-01   -0.49533E-03  3126   0.638E-01    0.778E-01
RMM:   4    -0.438598063617E+02    0.16300E-02   -0.46525E-03  3317   0.376E-01    0.499E-01
RMM:   5    -0.438597256186E+02    0.80743E-04   -0.12703E-03  3280   0.261E-01    0.432E-01
RMM:   6    -0.438598234050E+02   -0.97786E-04   -0.56966E-04  3832   0.732E-02    0.427E-01
RMM:   7    -0.438602893262E+02   -0.46592E-03   -0.16792E-03  3244   0.300E-01    0.618E-01
RMM:   8    -0.438593645130E+02    0.92481E-03   -0.42036E-03  3175   0.490E-01    0.659E-01
RMM:   9    -0.438576864217E+02    0.16781E-02   -0.16701E-03  3254   0.309E-01    0.318E-01
RMM:  10    -0.438559945070E+02    0.16919E-02   -0.11602E-03  3690   0.152E-01    0.193E-01
RMM:  11    -0.438557901188E+02    0.20439E-03   -0.28011E-04  3314   0.646E-02    0.161E-01
RMM:  12    -0.438561171566E+02   -0.32704E-03   -0.50517E-05  2161   0.310E-02    0.159E-01
RMM:  13    -0.438533892833E+02    0.27279E-02   -0.44761E-04  3086   0.113E-01    0.140E-01
RMM:  14    -0.438528703748E+02    0.51891E-03   -0.15509E-04  2820   0.389E-02    0.129E-01
RMM:  15    -0.438568659013E+02   -0.39955E-02   -0.10815E-03  3065   0.141E-01    0.111E-01
RMM:  16    -0.438576164154E+02   -0.75051E-03   -0.54550E-04  3519   0.936E-02    0.901E-02
RMM:  17    -0.438573443637E+02    0.27205E-03   -0.15629E-04  2894   0.726E-02    0.109E-01
RMM:  18    -0.438575321135E+02   -0.18775E-03   -0.91726E-05  2478   0.444E-02    0.120E-01
RMM:  19    -0.438571954133E+02    0.33670E-03   -0.77096E-05  2505   0.576E-02    0.102E-01
RMM:  20    -0.438572929360E+02   -0.97523E-04   -0.48524E-05  2161   0.426E-02    0.879E-02
RMM:  21    -0.438573972477E+02   -0.10431E-03   -0.80070E-05  2689   0.515E-02    0.687E-02
RMM:  22    -0.438576101498E+02   -0.21290E-03   -0.60182E-05  2247   0.362E-02    0.647E-02
RMM:  23    -0.438574395401E+02    0.17061E-03   -0.21420E-05  1810   0.329E-02    0.612E-02
RMM:  24    -0.438574437118E+02   -0.41716E-05   -0.94997E-06  1680   0.189E-02

 ----------------------------------------------------------------------------- 
|                                                                             |
|  ADVICE TO THIS USER RUNNING 'VASP/VAMP'   (HEAR YOUR MASTER'S VOICE ...):  |
|                                                                             |
|      Your highest band is occupied at some k-points! Unless you are         |
|      performing a calculation for an insulator or semiconductor, without    |
|      unoccupied bands, you have included TOO FEW BANDS!! Please increase    |
|      the parameter NBANDS in file INCAR to ensure that the highest band   |
|      is unoccupied at all k-points. It is always recommended to             |
|      include a few unoccupied bands to accelerate the convergence of        |
|      molecular dynamics runs (even for insulators or semiconductors).       |
|      Because the presence of unoccupied bands improves wavefunction         |
|      prediction, and helps to suppress 'band-crossings.'                    |
|                                                                             |
 ----------------------------------------------------------------------------- 

  14 F= -.43857444E+02 E0= -.43858075E+02  d E =-.207142E-01  mag=     5.0319
 curvature:  -1.50 expect dE=-0.871E-02 dE for cont linesearch -0.658E-05
 trial: gam= 0.34202 g(F)=  0.579E-02 g(S)=  0.000E+00 ort =-0.315E-03 (trialstep = 0.242E+01)
 search vector abs. value=  0.823E-02
 bond charge predicted
       N       E                     dE             d eps       ncg     rms          rms(c)
DAV:   1    -0.438551141027E+02    0.23254E-02   -0.89515E+00  3100   0.159E+01    0.101E+00
RMM:   2    -0.444344992917E+02   -0.57939E+00   -0.86539E-01  3167   0.738E+00    0.119E+01
RMM:   3    -0.439778029763E+02    0.45670E+00   -0.14633E-01  3130   0.362E+00    0.547E+00
RMM:   4    -0.438674397780E+02    0.11036E+00   -0.10470E-01  3187   0.210E+00    0.769E-01
RMM:   5    -0.438791285601E+02   -0.11689E-01   -0.36419E-02  3496   0.117E+00    0.181E+00
RMM:   6    -0.438663437732E+02    0.12785E-01   -0.97988E-03  3161   0.871E-01    0.397E-01
RMM:   7    -0.438668318740E+02   -0.48810E-03   -0.74405E-03  4018   0.305E-01    0.439E-01
RMM:   8    -0.438668829987E+02   -0.51125E-04   -0.14608E-03  3584   0.206E-01    0.408E-01
RMM:   9    -0.438668816571E+02    0.13416E-05   -0.41614E-04  3675   0.632E-02    0.406E-01
RMM:  10    -0.438670235973E+02   -0.14194E-03   -0.28376E-03  3185   0.408E-01    0.583E-01
RMM:  11    -0.438655752748E+02    0.14483E-02   -0.19329E-03  3158   0.394E-01    0.350E-01
RMM:  12    -0.438635632332E+02    0.20120E-02   -0.34358E-03  3429   0.336E-01    0.240E-01
RMM:  13    -0.438635956687E+02   -0.32435E-04   -0.11363E-03  4225   0.102E-01    0.227E-01
RMM:  14    -0.438628385751E+02    0.75709E-03   -0.33971E-04  3320   0.822E-02    0.223E-01
RMM:  15    -0.438618062268E+02    0.10323E-02   -0.36574E-04  3300   0.796E-02    0.212E-01
[...]
 curvature:  -1.56 expect dE=-0.246E-03 dE for cont linesearch -0.113E-03
 ZBRENT: increasing intervall
 opt :   4.5235  next Energy=   -44.153104 (dE=-0.138E-02)
 bond charge predicted
       N       E                     dE             d eps       ncg     rms          rms(c)
DAV:   1    -0.441524376425E+02    0.42307E-03   -0.22484E-01  3100   0.249E+00    0.243E-01
RMM:   2    -0.441688981867E+02   -0.16461E-01   -0.13088E-02  3302   0.911E-01    0.211E+00
RMM:   3    -0.441556292842E+02    0.13269E-01   -0.42096E-03  3131   0.611E-01    0.101E+00
RMM:   4    -0.441534780589E+02    0.21512E-02   -0.48306E-03  3251   0.525E-01    0.397E-01
RMM:   5    -0.441542269854E+02   -0.74893E-03   -0.24237E-03  3273   0.376E-01    0.571E-01
RMM:   6    -0.441531617581E+02    0.10652E-02   -0.61179E-04  3214   0.211E-01    0.284E-01
RMM:   7    -0.441530420444E+02    0.11971E-03   -0.17527E-04  3131   0.847E-02    0.242E-01
RMM:   8    -0.441531820108E+02   -0.13997E-03   -0.34436E-04  3215   0.133E-01    0.265E-01
RMM:   9    -0.441530407575E+02    0.14125E-03   -0.23728E-04  3124   0.126E-01    0.183E-01
RMM:  10    -0.441529445131E+02    0.96244E-04   -0.38281E-04  3258   0.946E-02    0.125E-01
RMM:  11    -0.441528156831E+02    0.12883E-03   -0.20658E-04  3092   0.687E-02    0.650E-02
RMM:  12    -0.441528561763E+02   -0.40493E-04   -0.53918E-05  2295   0.412E-02    0.361E-02
RMM:  13    -0.441529192689E+02   -0.63093E-04   -0.21033E-05  1826   0.350E-02    0.235E-02
RMM:  14    -0.441529347887E+02   -0.15520E-04   -0.10017E-05  1720   0.213E-02    0.235E-02
RMM:  15    -0.441529336671E+02    0.11216E-05   -0.39976E-06  1664   0.175E-02
 123 F= -.44152934E+02 E0= -.44153865E+02  d E =-.121417E-02  mag=     3.2106
 curvature:  -3.30 expect dE=-0.722E-03 dE for cont linesearch -0.553E-06
 trial: gam= 0.48923 g(F)=  0.218E-03 g(S)=  0.000E+00 ort = 0.932E-05 (trialstep = 0.238E+01)
 search vector abs. value=  0.352E-03
 bond charge predicted
       N       E                     dE             d eps       ncg     rms          rms(c)
DAV:   1    -0.441517034211E+02    0.12314E-02   -0.36610E-01  3100   0.316E+00    0.361E-01
RMM:   2    -0.441732580026E+02   -0.21555E-01   -0.18297E-02  3307   0.106E+00    0.247E+00
RMM:   3    -0.441568799721E+02    0.16378E-01   -0.67633E-03  3150   0.725E-01    0.110E+00
RMM:   4    -0.441587185362E+02   -0.18386E-02   -0.12498E-02  3306   0.783E-01    0.112E+00
RMM:   5    -0.441568541492E+02    0.18644E-02   -0.51862E-03  3197   0.590E-01    0.944E-01
RMM:   6    -0.441532428853E+02    0.36113E-02   -0.20139E-03  3126   0.441E-01    0.140E-01
RMM:   7    -0.441532905670E+02   -0.47682E-04   -0.92884E-04  3878   0.105E-01    0.100E-01
RMM:   8    -0.441532957772E+02   -0.52102E-05   -0.11399E-04  2783   0.644E-02    0.861E-02
RMM:   9    -0.441532925051E+02    0.32721E-05   -0.27248E-05  2008   0.407E-02
 124 F= -.44153293E+02 E0= -.44154144E+02  d E =-.358838E-03  mag=     3.2075
 trial-energy change:   -0.000359  1 .order   -0.000385   -0.000532   -0.000238
 step:   4.3147(harm=  4.3147)  dis= 0.01106  next Energy=   -44.153415 (dE=-0.481E-03)
 bond charge predicted
       N       E                     dE             d eps       ncg     rms          rms(c)
DAV:   1    -0.441523005458E+02    0.99523E-03   -0.24015E-01  3100   0.256E+00    0.292E-01
RMM:   2    -0.441574871368E+02   -0.51866E-02   -0.66097E-03  3251   0.723E-01    0.115E+00
RMM:   3    -0.441576799807E+02   -0.19284E-03   -0.37958E-03  3159   0.527E-01    0.116E+00
RMM:   4    -0.441577985131E+02   -0.11853E-03   -0.73334E-03  3286   0.606E-01    0.106E+00
RMM:   5    -0.441551705342E+02    0.26280E-02   -0.28800E-03  3159   0.472E-01    0.665E-01
RMM:   6    -0.441534750301E+02    0.16955E-02   -0.93143E-04  3164   0.278E-01    0.189E-01
RMM:   7    -0.441534878747E+02   -0.12845E-04   -0.31410E-04  3477   0.766E-02    0.176E-01
RMM:   8    -0.441534431659E+02    0.44709E-04   -0.13970E-04  3157   0.828E-02    0.179E-01
RMM:   9    -0.441536001232E+02   -0.15696E-03   -0.71604E-04  3299   0.176E-01    0.288E-01
RMM:  10    -0.441532291656E+02    0.37096E-03   -0.46367E-04  3164   0.176E-01    0.105E-01
RMM:  11    -0.441532249635E+02    0.42021E-05   -0.54518E-04  3616   0.123E-01    0.102E-01
RMM:  12    -0.441532924998E+02   -0.67536E-04   -0.15155E-04  3172   0.692E-02    0.979E-02
RMM:  13    -0.441532979052E+02   -0.54054E-05   -0.26605E-05  2004   0.251E-02
 125 F= -.44153298E+02 E0= -.44154081E+02  d E =-.364238E-03  mag=     3.1909
 curvature:  -3.40 expect dE=-0.371E-03 dE for cont linesearch -0.643E-05
 ZBRENT: interpolating
 opt :   3.9183  next Energy=   -44.153303 (dE=-0.369E-03)
 bond charge predicted
       N       E                     dE             d eps       ncg     rms          rms(c)
DAV:   1    -0.441532716611E+02    0.20839E-04   -0.10364E-02  3128   0.544E-01    0.976E-02
RMM:   2    -0.441541479398E+02   -0.87628E-03   -0.95961E-04  3234   0.250E-01    0.491E-01
RMM:   3    -0.441536784388E+02    0.46950E-03   -0.38589E-04  3143   0.169E-01    0.387E-01
RMM:   4    -0.441533769563E+02    0.30148E-03   -0.25970E-04  3190   0.125E-01    0.232E-01
RMM:   5    -0.441533725453E+02    0.44110E-05   -0.59537E-05  2363   0.336E-02
 126 F= -.44153373E+02 E0= -.44154102E+02  d E =-.438878E-03  mag=     3.1873
 curvature:  -2.70 expect dE=-0.527E-03 dE for cont linesearch -0.591E-04
 ZBRENT: bisectioning
 opt :   3.1510  next Energy=   -44.153486 (dE=-0.552E-03)
 bond charge predicted
       N       E                     dE             d eps       ncg     rms          rms(c)
DAV:   1    -0.441533599826E+02    0.16974E-04   -0.38217E-02  3100   0.104E+00    0.298E-01
RMM:   2    -0.442542274727E+02   -0.10087E+00   -0.40302E-02  3294   0.144E+00    0.511E+00
RMM:   3    -0.441576976637E+02    0.96530E-01   -0.15531E-02  3129   0.117E+00    0.121E+00
RMM:   4    -0.441533912317E+02    0.43064E-02   -0.74533E-03  3255   0.657E-01    0.382E-01
RMM:   5    -0.441534350486E+02   -0.43817E-04   -0.24855E-03  3587   0.282E-01    0.479E-01
RMM:   6    -0.441531996529E+02    0.23540E-03   -0.45319E-04  3597   0.907E-02    0.429E-01
RMM:   7    -0.441544688785E+02   -0.12692E-02   -0.28846E-03  3183   0.403E-01    0.597E-01
RMM:   8    -0.441533998478E+02    0.10690E-02   -0.24975E-03  3194   0.403E-01    0.282E-01
RMM:   9    -0.441536176789E+02   -0.21783E-03   -0.19964E-03  3419   0.275E-01    0.298E-01
RMM:  10    -0.441532984182E+02    0.31926E-03   -0.57248E-04  3228   0.197E-01    0.997E-02
RMM:  11    -0.441533269557E+02   -0.28538E-04   -0.20554E-04  2987   0.556E-02    0.385E-02
RMM:  12    -0.441533851686E+02   -0.58213E-04   -0.41397E-05  2114   0.378E-02    0.421E-02
RMM:  13    -0.441533983989E+02   -0.13230E-04   -0.15694E-05  1809   0.257E-02    0.349E-02
RMM:  14    -0.441534006752E+02   -0.22763E-05   -0.70073E-06  1717   0.183E-02
 127 F= -.44153401E+02 E0= -.44154281E+02  d E =-.467008E-03  mag=     3.1975
 curvature:  -5.18 expect dE=-0.301E-03 dE for cont linesearch -0.243E-04
 ZBRENT: interpolating
 opt :   3.3938  next Energy=   -44.153406 (dE=-0.472E-03)
 bond charge predicted
       N       E                     dE             d eps       ncg     rms          rms(c)
DAV:   1    -0.441533874815E+02    0.10917E-04   -0.38135E-03  3142   0.323E-01    0.532E-02
RMM:   2    -0.441548380301E+02   -0.14505E-02   -0.10120E-03  3277   0.228E-01    0.669E-01
RMM:   3    -0.441534671806E+02    0.13708E-02   -0.35430E-04  3075   0.176E-01    0.196E-01
RMM:   4    -0.441534418457E+02    0.25335E-04   -0.25210E-04  3119   0.103E-01    0.962E-02
RMM:   5    -0.441534570360E+02   -0.15190E-04   -0.12655E-04  3038   0.804E-02    0.104E-01
RMM:   6    -0.441534176248E+02    0.39411E-04   -0.31440E-05  2035   0.535E-02    0.552E-02
RMM:   7    -0.441534208322E+02   -0.32075E-05   -0.10248E-05  1750   0.152E-02
 128 F= -.44153421E+02 E0= -.44154309E+02  d E =-.487165E-03  mag=     3.1992
 curvature:  -1.05 expect dE=-0.736E-04 dE for cont linesearch -0.520E-05
 ZBRENT: bisectioning
 opt :   3.6560  next Energy=   -44.153432 (dE=-0.498E-03)
 bond charge predicted
       N       E                     dE             d eps       ncg     rms          rms(c)
DAV:   1    -0.441534114688E+02    0.61560E-05   -0.44386E-03  3107   0.347E-01    0.770E-02
RMM:   2    -0.441568355784E+02   -0.34241E-02   -0.22150E-03  3307   0.342E-01    0.101E+00
RMM:   3    -0.441536323236E+02    0.32033E-02   -0.84197E-04  3124   0.266E-01    0.311E-01
RMM:   4    -0.441535104008E+02    0.12192E-03   -0.55740E-04  3258   0.169E-01    0.164E-01
RMM:   5    -0.441534361691E+02    0.74232E-04   -0.22437E-04  3217   0.107E-01    0.841E-02
RMM:   6    -0.441534305670E+02    0.56021E-05   -0.45563E-05  2144   0.382E-02
 129 F= -.44153431E+02 E0= -.44154358E+02  d E =-.496900E-03  mag=     3.2009
 curvature:  -2.25 expect dE=-0.191E-03 dE for cont linesearch -0.899E-05
 ZBRENT: bisectioning
 opt :   3.7872  next Energy=   -44.153435 (dE=-0.502E-03)
 bond charge predicted
       N       E                     dE             d eps       ncg     rms          rms(c)
DAV:   1    -0.441534746827E+02   -0.38514E-04   -0.12452E-03  3496   0.232E-01    0.137E-01
RMM:   2    -0.441630584814E+02   -0.95838E-02   -0.10163E-02  3321   0.719E-01    0.156E+00
RMM:   3    -0.441554657868E+02    0.75927E-02   -0.32316E-03  3132   0.547E-01    0.801E-01
RMM:   4    -0.441534873438E+02    0.19784E-02   -0.17688E-03  3303   0.299E-01    0.182E-01
RMM:   5    -0.441534438264E+02    0.43517E-04   -0.71626E-04  3602   0.123E-01    0.114E-01
RMM:   6    -0.441534285267E+02    0.15300E-04   -0.13968E-04  2965   0.648E-02    0.107E-01
RMM:   7    -0.441534360391E+02   -0.75125E-05   -0.29486E-05  1983   0.272E-02
 130 F= -.44153436E+02 E0= -.44154389E+02  d E =-.502372E-03  mag=     3.1992
 curvature:  -1.20 expect dE=-0.115E-03 dE for cont linesearch -0.475E-05
 ZBRENT: bisectioning
 opt :   3.8527  next Energy=   -44.153438 (dE=-0.505E-03)
 bond charge predicted
       N       E                     dE             d eps       ncg     rms          rms(c)
DAV:   1    -0.441534034025E+02    0.25124E-04   -0.91814E-04  4969   0.270E-01    0.852E-02
RMM:   2    -0.441560509300E+02   -0.26475E-02   -0.32280E-03  3269   0.412E-01    0.831E-01
RMM:   3    -0.441539816181E+02    0.20693E-02   -0.99493E-04  3127   0.303E-01    0.459E-01
RMM:   4    -0.441534433316E+02    0.53829E-03   -0.71474E-04  3236   0.185E-01    0.117E-01
RMM:   5    -0.441534328149E+02    0.10517E-04   -0.21559E-04  3163   0.787E-02    0.953E-02
RMM:   6    -0.441534195890E+02    0.13226E-04   -0.70545E-05  2464   0.562E-02    0.943E-02
RMM:   7    -0.441534206669E+02   -0.10779E-05   -0.15633E-05  1752   0.218E-02
 131 F= -.44153421E+02 E0= -.44154342E+02  d E =-.487000E-03  mag=     3.2020
 curvature:  -0.62 expect dE=-0.556E-04 dE for cont linesearch -0.108E-05
 ZBRENT: bisectioning
 opt :   3.8855  next Energy=   -44.153421 (dE=-0.488E-03)
 bond charge predicted
       N       E                     dE             d eps       ncg     rms          rms(c)
DAV:   1    -0.441534202204E+02   -0.63140E-06   -0.83481E-05  3784   0.477E-02    0.101E-01
RMM:   2    -0.441569812815E+02   -0.35611E-02   -0.33966E-03  3268   0.430E-01    0.984E-01
RMM:   3    -0.441541449598E+02    0.28363E-02   -0.12596E-03  3157   0.309E-01    0.505E-01
RMM:   4    -0.441535364121E+02    0.60855E-03   -0.92280E-04  3215   0.246E-01    0.221E-01
RMM:   5    -0.441534044061E+02    0.13201E-03   -0.27253E-04  3352   0.863E-02    0.124E-01
RMM:   6    -0.441534677433E+02   -0.63337E-04   -0.11252E-04  2971   0.700E-02    0.158E-01
RMM:   7    -0.441534019668E+02    0.65777E-04   -0.12846E-04  2903   0.926E-02    0.867E-02
RMM:   8    -0.441533619475E+02    0.40019E-04   -0.66807E-04  3345   0.163E-01    0.754E-02
RMM:   9    -0.441534042452E+02   -0.42298E-04   -0.23331E-04  3471   0.679E-02    0.792E-02
RMM:  10    -0.441533929301E+02    0.11315E-04   -0.37952E-05  2122   0.472E-02    0.355E-02
RMM:  11    -0.441534098562E+02   -0.16926E-04   -0.17416E-05  1765   0.291E-02    0.321E-02
RMM:  12    -0.441534100702E+02   -0.21395E-06   -0.48769E-06  1642   0.176E-02
 132 F= -.44153410E+02 E0= -.44154255E+02  d E =-.476403E-03  mag=     3.1932
 curvature:  -0.41 expect dE=-0.294E-04 dE for cont linesearch -0.397E-07
 trial: gam= 0.30111 g(F)=  0.724E-04 g(S)=  0.000E+00 ort = 0.587E-05 (trialstep = 0.268E+01)
 search vector abs. value=  0.108E-03
 bond charge predicted
       N       E                     dE             d eps       ncg     rms          rms(c)
DAV:   1    -0.441529487655E+02    0.46109E-03   -0.14227E-01  3100   0.203E+00    0.222E-01
RMM:   2    -0.441578968838E+02   -0.49481E-02   -0.66275E-03  3269   0.693E-01    0.102E+00
RMM:   3    -0.441564050319E+02    0.14919E-02   -0.26300E-03  3128   0.490E-01    0.924E-01
RMM:   4    -0.441548709835E+02    0.15340E-02   -0.39580E-03  3304   0.446E-01    0.627E-01
RMM:   5    -0.441547226998E+02    0.14828E-03   -0.16779E-03  3215   0.348E-01    0.560E-01
RMM:   6    -0.441535609062E+02    0.11618E-02   -0.64039E-04  3133   0.239E-01    0.969E-02
RMM:   7    -0.441535814052E+02   -0.20499E-04   -0.21956E-04  3201   0.961E-02    0.692E-02
RMM:   8    -0.441535990196E+02   -0.17614E-04   -0.66830E-05  2446   0.574E-02    0.857E-02
RMM:   9    -0.441535986257E+02    0.39394E-06   -0.14980E-05  1814   0.224E-02
 133 F= -.44153599E+02 E0= -.44154503E+02  d E =-.188556E-03  mag=     3.1959
 trial-energy change:   -0.000189  1 .order   -0.000150   -0.000199   -0.000101
 step:   5.4243(harm=  5.4243)  dis= 0.00830  next Energy=   -44.153611 (dE=-0.201E-03)
 bond charge predicted
       N       E                     dE             d eps       ncg     rms          rms(c)
DAV:   1    -0.441529796678E+02    0.61935E-03   -0.14826E-01  3100   0.207E+00    0.232E-01
RMM:   2    -0.441593223155E+02   -0.63426E-02   -0.66049E-03  3329   0.675E-01    0.112E+00
RMM:   3    -0.441559684118E+02    0.33539E-02   -0.25855E-03  3133   0.480E-01    0.849E-01
RMM:   4    -0.441557776084E+02    0.19080E-03   -0.40824E-03  3316   0.432E-01    0.817E-01
RMM:   5    -0.441552587720E+02    0.51884E-03   -0.29965E-03  3244   0.420E-01    0.677E-01
RMM:   6    -0.441536191380E+02    0.16396E-02   -0.12513E-03  3104   0.352E-01    0.128E-01
RMM:   7    -0.441536636286E+02   -0.44491E-04   -0.33995E-04  3307   0.661E-02    0.115E-01
RMM:   8    -0.441536701137E+02   -0.64850E-05   -0.24021E-05  1898   0.248E-02
 134 F= -.44153670E+02 E0= -.44154653E+02  d E =-.260043E-03  mag=     3.1987
 curvature:  -3.94 expect dE=-0.216E-03 dE for cont linesearch -0.828E-07
 trial: gam= 0.88129 g(F)=  0.548E-04 g(S)=  0.000E+00 ort = 0.150E-05 (trialstep = 0.247E+01)
 search vector abs. value=  0.141E-03
 bond charge predicted
       N       E                     dE             d eps       ncg     rms          rms(c)
DAV:   1    -0.441532195164E+02    0.44411E-03   -0.15780E-01  3100   0.215E+00    0.284E-01
RMM:   2    -0.441868820777E+02   -0.33663E-01   -0.19535E-02  3295   0.107E+00    0.305E+00
RMM:   3    -0.441584828335E+02    0.28399E-01   -0.74684E-03  3140   0.806E-01    0.134E+00
RMM:   4    -0.441543339913E+02    0.41488E-02   -0.48265E-03  3233   0.531E-01    0.483E-01
RMM:   5    -0.441558942371E+02   -0.15602E-02   -0.46594E-03  3360   0.444E-01    0.796E-01
RMM:   6    -0.441538624534E+02    0.20318E-02   -0.10111E-03  3112   0.314E-01    0.232E-01
RMM:   7    -0.441539396127E+02   -0.77159E-04   -0.45572E-04  3617   0.754E-02    0.278E-01
RMM:   8    -0.441538826348E+02    0.56978E-04   -0.46228E-05  2244   0.453E-02    0.258E-01
RMM:   9    -0.441538742988E+02    0.83360E-05   -0.16704E-05  1876   0.308E-02
 135 F= -.44153874E+02 E0= -.44154858E+02  d E =-.204185E-03  mag=     3.1916
 trial-energy change:   -0.000204  1 .order   -0.000055   -0.000139    0.000028
 step:   2.4018(harm=  2.0564)  dis= 0.00428  next Energy=   -44.153875 (dE=-0.205E-03)
 bond charge predicted
       N       E                     dE             d eps       ncg     rms          rms(c)
DAV:   1    -0.441535539300E+02    0.32870E-03   -0.19667E-03  5480   0.434E-01    0.159E-01
RMM:   2    -0.441778521340E+02   -0.24298E-01   -0.10630E-02  3333   0.719E-01    0.259E+00
RMM:   3    -0.441543751884E+02    0.23477E-01   -0.43162E-03  3150   0.578E-01    0.677E-01
RMM:   4    -0.441537241930E+02    0.65100E-03   -0.23219E-03  3192   0.410E-01    0.217E-01
RMM:   5    -0.441536734153E+02    0.50778E-04   -0.76853E-04  3417   0.179E-01    0.178E-01
RMM:   6    -0.441536660133E+02    0.74020E-05   -0.25939E-04  3387   0.648E-02    0.156E-01
RMM:   7    -0.441536737842E+02   -0.77709E-05   -0.30293E-05  2042   0.397E-02
 136 F= -.44153674E+02 E0= -.44154614E+02  d E =-.367056E-05  mag=     3.1925
 curvature:  -0.76 expect dE=-0.112E-04 dE for cont linesearch -0.671E-06
 ZBRENT: interpolating
 opt :   2.0042  next Energy=   -44.153676 (dE=-0.588E-05)
 bond charge predicted
       N       E                     dE             d eps       ncg     rms          rms(c)
DAV:   1    -0.441537530091E+02   -0.86996E-04   -0.50559E-03  4335   0.552E-01    0.263E-01
RMM:   2    -0.441791437092E+02   -0.25391E-01   -0.37696E-02  3206   0.150E+00    0.253E+00
RMM:   3    -0.441628425701E+02    0.16301E-01   -0.10234E-02  3102   0.101E+00    0.167E+00
RMM:   4    -0.441538372198E+02    0.90054E-02   -0.58678E-03  3198   0.554E-01    0.280E-01
RMM:   5    -0.441536832890E+02    0.15393E-03   -0.16684E-03  3444   0.265E-01    0.183E-01
RMM:   6    -0.441538473576E+02   -0.16407E-03   -0.52011E-04  3862   0.103E-01    0.240E-01
RMM:   7    -0.441538003490E+02    0.47009E-04   -0.48968E-05  2258   0.345E-02    0.214E-01
RMM:   8    -0.441541191083E+02   -0.31876E-03   -0.78584E-04  3263   0.200E-01    0.369E-01
RMM:   9    -0.441535796811E+02    0.53943E-03   -0.71912E-04  3226   0.210E-01    0.194E-01
RMM:  10    -0.441533560516E+02    0.22363E-03   -0.71275E-04  3656   0.127E-01    0.125E-01
RMM:  11    -0.441532830705E+02    0.72981E-04   -0.13027E-04  3015   0.720E-02    0.749E-02
RMM:  12    -0.441532854417E+02   -0.23712E-05   -0.23537E-05  1971   0.227E-02
 137 F= -.44153285E+02 E0= -.44154164E+02  d E =0.384672E-03  mag=     3.1885
 curvature:  -2.52 expect dE=-0.793E-04 dE for cont linesearch -0.253E-04
 ZBRENT: bisectioning
 opt :   1.0021  next Energy=   -44.153357 (dE= 0.313E-03)
 bond charge predicted
       N       E                     dE             d eps       ncg     rms          rms(c)
DAV:   1    -0.441531922137E+02    0.90857E-04   -0.26006E-02  3100   0.862E-01    0.110E-01
RMM:   2    -0.441570513362E+02   -0.38591E-02   -0.39018E-03  3249   0.481E-01    0.105E+00
RMM:   3    -0.441538701550E+02    0.31812E-02   -0.92994E-04  3123   0.296E-01    0.409E-01
RMM:   4    -0.441532280861E+02    0.64207E-03   -0.87840E-04  3205   0.225E-01    0.138E-01
RMM:   5    -0.441532814092E+02   -0.53323E-04   -0.52003E-04  3242   0.159E-01    0.192E-01
RMM:   6    -0.441531809105E+02    0.10050E-03   -0.15267E-04  2997   0.975E-02    0.139E-01
RMM:   7    -0.441531301397E+02    0.50771E-04   -0.40385E-05  2037   0.423E-02    0.103E-01
RMM:   8    -0.441534044192E+02   -0.27428E-03   -0.29154E-04  3129   0.129E-01    0.201E-01
RMM:   9    -0.441533797161E+02    0.24703E-04   -0.22588E-04  3067   0.128E-01    0.631E-02
RMM:  10    -0.441535012886E+02   -0.12157E-03   -0.19900E-04  3204   0.631E-02    0.393E-02
RMM:  11    -0.441535208431E+02   -0.19555E-04   -0.33819E-05  1943   0.310E-02    0.363E-02
RMM:  12    -0.441535220565E+02   -0.12134E-05   -0.79419E-06  1627   0.213E-02
 138 F= -.44153522E+02 E0= -.44154442E+02  d E =0.148057E-03  mag=     3.1886
 curvature:  -7.09 expect dE=-0.658E-04 dE for cont linesearch -0.123E-04
 trial: gam= 0.08741 g(F)=  0.928E-05 g(S)=  0.000E+00 ort =-0.156E-04 (trialstep = 0.217E+01)
 search vector abs. value=  0.762E-05
 reached required accuracy - stopping structural energy minimisation
