<?xml version="1.0" encoding="ISO-8859-1"?>
<modeling>
 <generator>
  <i name="program" type="string">vasp </i>
  <i name="version" type="string">5.3.3  </i>
  <i name="subversion" type="string">18Dez12 (build Sep  7 2015 22:32:56) complex                          parallel </i>
  <i name="platform" type="string">LinuxIFC </i>
  <i name="date" type="string">2022 12 02 </i>
  <i name="time" type="string">14:45:06 </i>
 </generator>
 <incar>
  <i type="string" name="SYSTEM"> Crystal</i>
  <i type="int" name="ISTART">     0</i>
  <i type="string" name="PREC">normal</i>
  <i type="string" name="ALGO"> fast</i>
  <i type="int" name="NSIM">     4</i>
  <i type="int" name="ISPIN">     2</i>
  <i type="int" name="ICHARG">     2</i>
  <i type="int" name="NELMDL">   -10</i>
  <i type="int" name="NELMIN">     4</i>
  <i type="int" name="IBRION">     2</i>
  <i name="EDIFF">      0.00001000</i>
  <i name="EDIFFG">     -0.01000000</i>
  <i type="int" name="NSW">   300</i>
  <i name="ENCUT">    350.00000000</i>
  <i type="logical" name="LREAL"> F  </i>
  <i type="int" name="ISMEAR">     2</i>
  <i name="SIGMA">      0.10000000</i>
  <i type="logical" name="LWAVE"> F  </i>
  <i type="logical" name="LCHARG"> F  </i>
 </incar>
 <kpoints>
  <generation param="Gamma">
   <v type="int" name="divisions">       9        9        1 </v>
   <v name="usershift">      0.00000000       0.00000000       0.00000000 </v>
   <v name="genvec1">      0.11111111       0.00000000       0.00000000 </v>
   <v name="genvec2">      0.00000000       0.11111111       0.00000000 </v>
   <v name="genvec3">      0.00000000       0.00000000       1.00000000 </v>
   <v name="shift">      0.00000000       0.00000000       0.00000000 </v>
  </generation>
  <varray name="kpointlist" >
   <v>       0.00000000       0.00000000       0.00000000 </v>
   <v>       0.11111111       0.00000000       0.00000000 </v>
   <v>       0.22222222       0.00000000       0.00000000 </v>
   <v>       0.33333333       0.00000000       0.00000000 </v>
   <v>       0.44444444       0.00000000       0.00000000 </v>
   <v>       0.11111111       0.11111111       0.00000000 </v>
   <v>       0.22222222       0.11111111       0.00000000 </v>
   <v>       0.33333333       0.11111111       0.00000000 </v>
   <v>       0.44444444       0.11111111       0.00000000 </v>
   <v>      -0.44444444       0.11111111       0.00000000 </v>
   <v>      -0.33333333       0.11111111       0.00000000 </v>
   <v>      -0.22222222       0.11111111       0.00000000 </v>
   <v>      -0.11111111       0.11111111       0.00000000 </v>
   <v>       0.22222222       0.22222222       0.00000000 </v>
   <v>       0.33333333       0.22222222       0.00000000 </v>
   <v>       0.44444444       0.22222222       0.00000000 </v>
   <v>      -0.44444444       0.22222222       0.00000000 </v>
   <v>      -0.33333333       0.22222222       0.00000000 </v>
   <v>      -0.22222222       0.22222222       0.00000000 </v>
   <v>       0.33333333       0.33333333       0.00000000 </v>
   <v>       0.44444444       0.33333333       0.00000000 </v>
   <v>      -0.44444444       0.33333333       0.00000000 </v>
   <v>      -0.33333333       0.33333333       0.00000000 </v>
   <v>       0.44444444       0.44444444       0.00000000 </v>
   <v>      -0.44444444       0.44444444       0.00000000 </v>
  </varray>
  <varray name="weights" >
   <v>       0.01234568 </v>
   <v>       0.04938272 </v>
   <v>       0.04938272 </v>
   <v>       0.04938272 </v>
   <v>       0.04938272 </v>
   <v>       0.02469136 </v>
   <v>       0.04938272 </v>
   <v>       0.04938272 </v>
   <v>       0.04938272 </v>
   <v>       0.04938272 </v>
   <v>       0.04938272 </v>
   <v>       0.04938272 </v>
   <v>       0.02469136 </v>
   <v>       0.02469136 </v>
   <v>       0.04938272 </v>
   <v>       0.04938272 </v>
   <v>       0.04938272 </v>
   <v>       0.04938272 </v>
   <v>       0.02469136 </v>
   <v>       0.02469136 </v>
   <v>       0.04938272 </v>
   <v>       0.04938272 </v>
   <v>       0.02469136 </v>
   <v>       0.02469136 </v>
   <v>       0.02469136 </v>
  </varray>
 </kpoints>
 <parameters>
  <separator name="general" >
   <i type="string" name="SYSTEM">Crystal</i>
   <i type="logical" name="LCOMPAT"> F  </i>
  </separator>
  <separator name="electronic" >
   <i type="string" name="PREC">normal</i>
   <i name="ENMAX">    350.00000000</i>
   <i name="ENAUG">    511.36800000</i>
   <i name="EDIFF">      0.00001000</i>
   <i type="int" name="IALGO">    68</i>
   <i type="int" name="IWAVPR">    11</i>
   <i type="int" name="NBANDS">    31</i>
   <i name="NELECT">     48.00000000</i>
   <i type="int" name="TURBO">     0</i>
   <i type="int" name="IRESTART">     0</i>
   <i type="int" name="NREBOOT">     0</i>
   <i type="int" name="NMIN">     0</i>
   <i name="EREF">      0.00000000</i>
   <separator name="electronic smearing" >
    <i type="int" name="ISMEAR">     2</i>
    <i name="SIGMA">      0.10000000</i>
    <i name="KSPACING">      0.50000000</i>
    <i type="logical" name="KGAMMA"> T  </i>
   </separator>
   <separator name="electronic projectors" >
    <i type="logical" name="LREAL"> F  </i>
    <v name="ROPT">      0.00000000</v>
    <i type="int" name="LMAXPAW">  -100</i>
    <i type="int" name="LMAXMIX">     2</i>
    <i type="logical" name="NLSPLINE"> F  </i>
   </separator>
   <separator name="electronic startup" >
    <i type="int" name="ISTART">     0</i>
    <i type="int" name="ICHARG">     2</i>
    <i type="int" name="INIWAV">     1</i>
   </separator>
   <separator name="electronic spin" >
    <i type="int" name="ISPIN">     2</i>
    <i type="logical" name="LNONCOLLINEAR"> F  </i>
    <v name="MAGMOM">      1.00000000      1.00000000      1.00000000      1.00000000      1.00000000      1.00000000</v>
    <i name="NUPDOWN">     -1.00000000</i>
    <i type="logical" name="LSORBIT"> F  </i>
    <v name="SAXIS">      0.00000000      0.00000000      1.00000000</v>
    <i type="logical" name="LSPIRAL"> F  </i>
    <v name="QSPIRAL">      0.00000000      0.00000000      0.00000000</v>
    <i type="logical" name="LZEROZ"> F  </i>
   </separator>
   <separator name="electronic exchange-correlation" >
    <i type="logical" name="LASPH"> F  </i>
    <i type="logical" name="LMETAGGA"> F  </i>
   </separator>
   <separator name="electronic convergence" >
    <i type="int" name="NELM">    60</i>
    <i type="int" name="NELMDL">   -10</i>
    <i type="int" name="NELMIN">     4</i>
    <i name="ENINI">    350.00000000</i>
    <separator name="electronic convergence detail" >
     <i type="logical" name="LDIAG"> T  </i>
     <i type="logical" name="LSUBROT"> T  </i>
     <i name="WEIMIN">      0.00100000</i>
     <i name="EBREAK">      0.00000008</i>
     <i name="DEPER">      0.30000000</i>
     <i type="int" name="NRMM">     4</i>
     <i name="TIME">      0.40000000</i>
    </separator>
   </separator>
   <separator name="electronic mixer" >
    <i name="AMIX">      0.40000000</i>
    <i name="BMIX">      1.00000000</i>
    <i name="AMIN">      0.10000000</i>
    <i name="AMIX_MAG">      1.60000000</i>
    <i name="BMIX_MAG">      1.00000000</i>
    <separator name="electronic mixer details" >
     <i type="int" name="IMIX">     4</i>
     <i type="int" name="MAXMIX">   -45</i>
     <i name="WC">    100.00000000</i>
     <i type="int" name="INIMIX">     1</i>
     <i type="int" name="MIXPRE">     1</i>
     <i type="int" name="MREMOVE">     5</i>
    </separator>
   </separator>
   <separator name="electronic dipolcorrection" >
    <i type="logical" name="LDIPOL"> F  </i>
    <i type="logical" name="LMONO"> F  </i>
    <i type="int" name="IDIPOL">     0</i>
    <i name="EPSILON">      1.00000000</i>
    <v name="DIPOL">   -100.00000000   -100.00000000   -100.00000000</v>
    <i name="EFIELD">      0.00000000</i>
   </separator>
  </separator>
  <separator name="grids" >
   <i type="int" name="NGX">    14</i>
   <i type="int" name="NGY">    14</i>
   <i type="int" name="NGZ">    96</i>
   <i type="int" name="NGXF">    28</i>
   <i type="int" name="NGYF">    28</i>
   <i type="int" name="NGZF">   192</i>
   <i type="logical" name="ADDGRID"> F  </i>
  </separator>
  <separator name="ionic" >
   <i type="int" name="NSW">   300</i>
   <i type="int" name="IBRION">     2</i>
   <i type="int" name="ISIF">     2</i>
   <i name="PSTRESS">      0.00000000</i>
   <i name="EDIFFG">     -0.01000000</i>
   <i type="int" name="NFREE">     1</i>
   <i name="POTIM">      0.50000000</i>
   <i name="SMASS">     -3.00000000</i>
   <i name="SCALEE">      1.00000000</i>
  </separator>
  <separator name="ionic md" >
   <i name="TEBEG">      0.00010000</i>
   <i name="TEEND">      0.00010000</i>
   <i type="int" name="NBLOCK">     1</i>
   <i type="int" name="KBLOCK">   300</i>
   <i type="int" name="NPACO">   256</i>
   <i name="APACO">     16.00000000</i>
  </separator>
  <separator name="symmetry" >
   <i type="int" name="ISYM">     2</i>
   <i name="SYMPREC">      0.00001000</i>
  </separator>
  <separator name="dos" >
   <i type="logical" name="LORBIT"> F  </i>
   <v name="RWIGS">     -1.00000000</v>
   <i type="int" name="NEDOS">   301</i>
   <i name="EMIN">     10.00000000</i>
   <i name="EMAX">    -10.00000000</i>
   <i name="EFERMI">      0.00000000</i>
  </separator>
  <separator name="writing" >
   <i type="int" name="NWRITE">     2</i>
   <i type="logical" name="LWAVE"> F  </i>
   <i type="logical" name="LCHARG"> F  </i>
   <i type="logical" name="LPARD"> F  </i>
   <i type="logical" name="LVTOT"> F  </i>
   <i type="logical" name="LVHAR"> F  </i>
   <i type="logical" name="LELF"> F  </i>
   <i type="logical" name="LOPTICS"> F  </i>
   <v name="STM">      0.00000000      0.00000000      0.00000000      0.00000000      0.00000000      0.00000000      0.00000000</v>
  </separator>
  <separator name="performance" >
   <i type="int" name="NPAR">     1</i>
   <i type="int" name="NSIM">     4</i>
   <i type="int" name="NBLK">    -1</i>
   <i type="logical" name="LPLANE"> T  </i>
   <i type="logical" name="LSCALAPACK"> F  </i>
   <i type="logical" name="LSCAAWARE"> F  </i>
   <i type="logical" name="LSCALU"> F  </i>
   <i type="logical" name="LASYNC"> F  </i>
   <i type="logical" name="LORBITALREAL"> F  </i>
  </separator>
  <separator name="miscellaneous" >
   <i type="int" name="IDIOT">     3</i>
   <i type="logical" name="LMUSIC"> F  </i>
   <v name="POMASS">     55.84700000</v>
   <v name="DARWINR">      0.00000000</v>
   <v name="DARWINV">      1.00000000</v>
   <i type="logical" name="LCORR"> T  </i>
  </separator>
  <i type="logical" name="GGA_COMPAT"> T  </i>
  <i type="logical" name="LBERRY"> F  </i>
  <i type="int" name="ICORELEVEL">     0</i>
  <i type="logical" name="LDAU"> F  </i>
  <i type="int" name="I_CONSTRAINED_M">     0</i>
  <separator name="electronic exchange-correlation" >
   <i type="string" name="GGA">--</i>
   <i type="int" name="VOSKOWN">     0</i>
   <i type="logical" name="LHFCALC"> F  </i>
   <i type="string" name="PRECFOCK"></i>
   <i type="logical" name="LSYMGRAD"> F  </i>
   <i type="logical" name="LHFONE"> F  </i>
   <i type="logical" name="LRHFCALC"> F  </i>
   <i type="logical" name="LTHOMAS"> F  </i>
   <i type="logical" name="LMODELHF"> F  </i>
   <i name="ENCUT4O">     -1.00000000</i>
   <i type="int" name="EXXOEP">     0</i>
   <i type="int" name="FOURORBIT">     0</i>
   <i name="AEXX">      0.00000000</i>
   <i name="HFALPHA">      0.00000000</i>
   <i name="MCALPHA">      0.00000000</i>
   <i name="ALDAX">      1.00000000</i>
   <i name="AGGAX">      1.00000000</i>
   <i name="ALDAC">      1.00000000</i>
   <i name="AGGAC">      1.00000000</i>
   <i type="int" name="NKREDX">     1</i>
   <i type="int" name="NKREDY">     1</i>
   <i type="int" name="NKREDZ">     1</i>
   <i type="logical" name="SHIFTRED"> F  </i>
   <i type="logical" name="ODDONLY"> F  </i>
   <i type="logical" name="EVENONLY"> F  </i>
   <i type="int" name="LMAXFOCK">     0</i>
   <i type="int" name="NMAXFOCKAE">     0</i>
   <i type="logical" name="LFOCKAEDFT"> F  </i>
   <i name="HFSCREEN">      0.00000000</i>
   <i name="HFSCREENC">      0.00000000</i>
   <i type="int" name="NBANDSGWLOW">     0</i>
  </separator>
  <separator name="vdW DFT" >
   <i type="logical" name="LUSE_VDW"> F  </i>
   <i name="Zab_VDW">     -0.84910000</i>
   <i name="PARAM1">      0.12340000</i>
   <i name="PARAM2">      1.00000000</i>
   <i name="PARAM3">      0.00000000</i>
  </separator>
  <separator name="model GW" >
   <i type="int" name="MODEL_GW">     0</i>
   <i name="MODEL_EPS0">     13.77288000</i>
   <i name="MODEL_ALPHA">      1.00000000</i>
  </separator>
  <separator name="linear response parameters" >
   <i type="logical" name="LEPSILON"> F  </i>
   <i type="logical" name="LRPA"> F  </i>
   <i type="logical" name="LNABLA"> F  </i>
   <i type="logical" name="LVEL"> F  </i>
   <i type="int" name="KINTER">     0</i>
   <i name="CSHIFT">      0.10000000</i>
   <i name="OMEGAMAX">     -1.00000000</i>
   <i name="DEG_THRESHOLD">      0.00200000</i>
  </separator>
  <separator name="orbital magnetization" >
   <i type="logical" name="NUCIND"> F  </i>
   <v name="MAGPOS">      0.00000000      0.00000000      0.00000000</v>
   <i type="logical" name="LNICSALL"> T  </i>
   <i type="logical" name="ORBITALMAG"> F  </i>
   <i type="logical" name="LMAGBLOCH"> F  </i>
   <i type="logical" name="LCHIMAG"> F  </i>
   <i type="logical" name="LGAUGE"> T  </i>
   <i type="int" name="MAGATOM">     0</i>
   <v name="MAGDIPOL">      0.00000000      0.00000000      0.00000000</v>
   <v name="AVECCONST">      0.00000000      0.00000000      0.00000000</v>
  </separator>
  <separator name="response functions" >
   <i type="logical" name="LADDER"> F  </i>
   <i type="logical" name="LFXC"> F  </i>
   <i type="logical" name="LHARTREE"> T  </i>
   <i type="int" name="IBSE">     0</i>
   <i type="logical" name="LTCTE"> F  </i>
   <i type="logical" name="LTETE"> F  </i>
   <i type="logical" name="LTRIPLET"> F  </i>
   <i type="logical" name="LFXCEPS"> F  </i>
   <i type="logical" name="L2ORDER"> F  </i>
   <i type="logical" name="LUSEW"> F  </i>
   <i name="ENCUTGW">     -2.00000000</i>
   <i name="ENCUTGWSOFT">     -2.00000000</i>
   <i name="ENCUTLF">     -1.00000000</i>
   <i type="int" name="LMAXMP2">    -1</i>
   <i name="SCISSOR">      0.00000000</i>
   <i type="int" name="NOMEGA">     0</i>
   <i type="int" name="NOMEGAR">     0</i>
   <i type="int" name="NBANDSGW">    -1</i>
   <i type="int" name="NBANDSO">    -1</i>
   <i type="int" name="NBANDSV">    -1</i>
   <i type="int" name="NELM">     1</i>
   <i type="int" name="DIM">     3</i>
   <i type="int" name="ANTIRES">     0</i>
   <i name="OMEGAMAX">    -30.00000000</i>
   <i name="OMEGATL">   -200.00000000</i>
   <i type="int" name="OMEGAGRID">     0</i>
   <i name="CSHIFT">     -0.10000000</i>
   <i type="logical" name="SELFENERGY"> F  </i>
   <i type="logical" name="LSPECTRAL"> F  </i>
   <i type="logical" name="ODDONLYGW"> F  </i>
   <i type="logical" name="EVENONLYGW"> F  </i>
   <i type="int" name="NKREDLFX">     1</i>
   <i type="int" name="NKREDLFY">     1</i>
   <i type="int" name="NKREDLFZ">     1</i>
   <i type="int" name="MAXMEM">  1800</i>
   <i type="int" name="TELESCOPE">     0</i>
  </separator>
 </parameters>
 <atominfo>
  <atoms>       6 </atoms>
  <types>       1 </types>
  <array name="atoms" >
   <dimension dim="1">ion</dimension>
   <field type="string">element</field>
   <field type="int">atomtype</field>
   <set>
    <rc><c>Fe</c><c>   1</c></rc>
    <rc><c>Fe</c><c>   1</c></rc>
    <rc><c>Fe</c><c>   1</c></rc>
    <rc><c>Fe</c><c>   1</c></rc>
    <rc><c>Fe</c><c>   1</c></rc>
    <rc><c>Fe</c><c>   1</c></rc>
   </set>
  </array>
  <array name="atomtypes" >
   <dimension dim="1">type</dimension>
   <field type="int">atomspertype</field>
   <field type="string">element</field>
   <field>mass</field>
   <field>valence</field>
   <field type="string">pseudopotential</field>
   <set>
    <rc><c>   6</c><c>Fe</c><c>     55.84700000</c><c>      8.00000000</c><c>  PAW_PBE Fe 06Sep2000                  </c></rc>
   </set>
  </array>
 </atominfo>
 <structure name="initialpos" >
  <crystal>
   <varray name="basis" >
    <v>       1.41000000       2.44200000       0.00000000 </v>
    <v>      -1.41000000       2.44200000       0.00000000 </v>
    <v>       0.00000000       0.00000000      20.00000000 </v>
   </varray>
   <i name="volume">    137.72880000 </i>
   <varray name="rec_basis" >
    <v>       0.35460993       0.20475020       0.00000000 </v>
    <v>      -0.35460993       0.20475020       0.00000000 </v>
    <v>       0.00000000       0.00000000       0.05000000 </v>
   </varray>
  </crystal>
  <varray name="positions" >
   <v>       0.00000000       0.00000000       0.00000000 </v>
   <v>       0.40828033       0.40828033       0.09970206 </v>
   <v>       0.81656066       0.81656066       0.19940411 </v>
   <v>       0.22484098       0.22484098       0.29910617 </v>
   <v>       0.63312131       0.63312131       0.39880822 </v>
   <v>       0.04140164       0.04140164       0.49851028 </v>
  </varray>
  <varray name="selective"  type="logical" >
   <v type="logical" >  F  F  F </v>
   <v type="logical" >  F  F  F </v>
   <v type="logical" >  T  T  T </v>
   <v type="logical" >  T  T  T </v>
   <v type="logical" >  T  T  T </v>
   <v type="logical" >  T  T  T </v>
  </varray>
  <nose>
   <v>      -3.00000000       0.00000000       0.00010000       0.00010000 </v>
  </nose>
 </structure>
 <calculation>
  <scstep>
   <time name="dav">   20.60   20.79</time>
   <time name="total">   20.92   21.19</time>
   <energy>
    <i name="alphaZ">    180.65182707 </i>
    <i name="ewald">   5164.45476024 </i>
    <i name="hartreedc">  -8923.55697815 </i>
    <i name="XCdc">     20.07706144 </i>
    <i name="pawpsdc">   3328.36036734 </i>
    <i name="pawaedc">  -3374.58551447 </i>
    <i name="eentropy">      0.00009850 </i>
    <i name="bandstr">    350.76437612 </i>
    <i name="atom">   3565.76896863 </i>
    <i name="e_fr_energy">    311.93496671 </i>
    <i name="e_wo_entrp">    311.93486820 </i>
    <i name="e_0_energy">    311.93494208 </i>
   </energy>
  </scstep>
  <scstep>
   <time name="dav">   20.53   20.56</time>
   <time name="total">   20.54   20.57</time>
   <energy>
    <i name="e_fr_energy">    -22.69983645 </i>
    <i name="e_wo_entrp">    -22.69942439 </i>
    <i name="e_0_energy">    -22.69973344 </i>
   </energy>
  </scstep>
  <scstep>
   <time name="dav">   27.99   28.05</time>
   <time name="total">   28.00   28.06</time>
   <energy>
    <i name="e_fr_energy">    -47.86634546 </i>
    <i name="e_wo_entrp">    -47.86790613 </i>
    <i name="e_0_energy">    -47.86673563 </i>
   </energy>
  </scstep>
  <scstep>
   <time name="dav">   28.03   28.06</time>
   <time name="total">   28.04   28.09</time>
   <energy>
    <i name="e_fr_energy">    -50.51256191 </i>
    <i name="e_wo_entrp">    -50.51495675 </i>
    <i name="e_0_energy">    -50.51316062 </i>
   </energy>
  </scstep>
  <scstep>
   <time name="dav">   28.34   28.37</time>
   <time name="total">   28.35   28.38</time>
   <energy>
    <i name="e_fr_energy">    -50.77858567 </i>
    <i name="e_wo_entrp">    -50.77631037 </i>
    <i name="e_0_energy">    -50.77801685 </i>
   </energy>
  </scstep>
  <scstep>
   <time name="dav">   28.18   28.21</time>
   <time name="total">   28.19   28.22</time>
   <energy>
    <i name="e_fr_energy">    -50.80659665 </i>
    <i name="e_wo_entrp">    -50.80394053 </i>
    <i name="e_0_energy">    -50.80593262 </i>
   </energy>
  </scstep>
  <scstep>
   <time name="dav">   28.35   28.39</time>
   <time name="total">   28.36   28.39</time>
   <energy>
    <i name="e_fr_energy">    -50.81278890 </i>
    <i name="e_wo_entrp">    -50.80995695 </i>
    <i name="e_0_energy">    -50.81208091 </i>
   </energy>
  </scstep>
  <scstep>
   <time name="dav">   23.57   23.60</time>
   <time name="total">   23.58   23.61</time>
   <energy>
    <i name="e_fr_energy">    -50.81409350 </i>
    <i name="e_wo_entrp">    -50.81124231 </i>
    <i name="e_0_energy">    -50.81338070 </i>
   </energy>
  </scstep>
  <scstep>
   <time name="dav">   20.44   20.47</time>
   <time name="total">   20.45   20.48</time>
   <energy>
    <i name="e_fr_energy">    -50.81454621 </i>
    <i name="e_wo_entrp">    -50.81170356 </i>
    <i name="e_0_energy">    -50.81383554 </i>
   </energy>
  </scstep>
  <scstep>
   <time name="dav">   18.41   18.43</time>
   <time name="total">   21.26   21.43</time>
   <energy>
    <i name="e_fr_energy">    -50.81472393 </i>
    <i name="e_wo_entrp">    -50.81188103 </i>
    <i name="e_0_energy">    -50.81401320 </i>
   </energy>
  </scstep>
  <scstep>
   <time name="diag">    5.62    5.66</time>
   <time name="diis">   19.93   19.95</time>
   <time name="orth">    0.17    0.17</time>
   <time name="total">   28.87   29.06</time>
   <energy>
    <i name="e_fr_energy">    -75.00011572 </i>
    <i name="e_wo_entrp">    -75.00156859 </i>
    <i name="e_0_energy">    -75.00047894 </i>
   </energy>
  </scstep>
  <scstep>
   <time name="diag">    5.60    5.60</time>
   <time name="diis">   17.36   17.38</time>
   <time name="orth">    0.17    0.17</time>
   <time name="total">   26.28   26.33</time>
   <energy>
    <i name="e_fr_energy">    -60.25264951 </i>
    <i name="e_wo_entrp">    -60.25214925 </i>
    <i name="e_0_energy">    -60.25252444 </i>
   </energy>
  </scstep>
  <scstep>
   <time name="diag">    5.60    5.60</time>
   <time name="diis">   16.97   16.99</time>
   <time name="orth">    0.17    0.17</time>
   <time name="total">   25.90   25.96</time>
   <energy>
    <i name="e_fr_energy">    -48.21820639 </i>
    <i name="e_wo_entrp">    -48.21605706 </i>
    <i name="e_0_energy">    -48.21766905 </i>
   </energy>
  </scstep>
  <scstep>
   <time name="diag">    5.62    5.62</time>
   <time name="diis">   17.75   17.77</time>
   <time name="orth">    0.17    0.17</time>
   <time name="total">   26.68   26.72</time>
   <energy>
    <i name="e_fr_energy">    -49.67700771 </i>
    <i name="e_wo_entrp">    -49.67356351 </i>
    <i name="e_0_energy">    -49.67614666 </i>
   </energy>
  </scstep>
  <scstep>
   <time name="diag">    5.60    5.61</time>
   <time name="diis">   18.36   18.39</time>
   <time name="orth">    0.17    0.17</time>
   <time name="total">   27.29   27.32</time>
   <energy>
    <i name="e_fr_energy">    -54.46486911 </i>
    <i name="e_wo_entrp">    -54.46587125 </i>
    <i name="e_0_energy">    -54.46511965 </i>
   </energy>
  </scstep>
  <scstep>
   <time name="diag">    5.60    5.61</time>
   <time name="diis">   17.45   17.47</time>
   <time name="orth">    0.17    0.17</time>
   <time name="total">   26.37   26.40</time>
   <energy>
    <i name="e_fr_energy">    -45.46182203 </i>
    <i name="e_wo_entrp">    -45.45985619 </i>
    <i name="e_0_energy">    -45.46133057 </i>
   </energy>
  </scstep>
  <scstep>
   <time name="diag">    5.60    5.61</time>
   <time name="diis">   18.58   18.61</time>
   <time name="orth">    0.17    0.17</time>
   <time name="total">   27.50   27.54</time>
   <energy>
    <i name="e_fr_energy">    -43.80147503 </i>
    <i name="e_wo_entrp">    -43.80310710 </i>
    <i name="e_0_energy">    -43.80188305 </i>
   </energy>
  </scstep>
  <scstep>
   <time name="diag">    5.59    5.60</time>
   <time name="diis">   18.43   18.45</time>
   <time name="orth">    0.17    0.17</time>
   <time name="total">   27.34   27.37</time>
   <energy>
    <i name="e_fr_energy">    -43.25871876 </i>
    <i name="e_wo_entrp">    -43.25773955 </i>
    <i name="e_0_energy">    -43.25847396 </i>
   </energy>
  </scstep>
  <scstep>
   <time name="diag">    5.60    5.60</time>
   <time name="diis">   23.37   23.40</time>
   <time name="orth">    0.17    0.17</time>
   <time name="total">   32.28   32.32</time>
   <energy>
    <i name="e_fr_energy">    -43.27609447 </i>
    <i name="e_wo_entrp">    -43.27519444 </i>
    <i name="e_0_energy">    -43.27586947 </i>
   </energy>
  </scstep>
  <scstep>
   <time name="diag">    5.59    5.60</time>
   <time name="diis">   21.61   21.64</time>
   <time name="orth">    0.17    0.17</time>
   <time name="total">   30.52   30.56</time>
   <energy>
    <i name="e_fr_energy">    -43.29348721 </i>
    <i name="e_wo_entrp">    -43.29124295 </i>
    <i name="e_0_energy">    -43.29292615 </i>
   </energy>
  </scstep>
  <scstep>
   <time name="diag">    5.58    5.58</time>
   <time name="diis">   18.21   18.23</time>
   <time name="orth">    0.17    0.17</time>
   <time name="total">   27.10   27.16</time>
   <energy>
    <i name="e_fr_energy">    -43.26608657 </i>
    <i name="e_wo_entrp">    -43.26521607 </i>
    <i name="e_0_energy">    -43.26586894 </i>
   </energy>
  </scstep>
  <scstep>
   <time name="diag">    5.59    5.60</time>
   <time name="diis">   17.64   17.67</time>
   <time name="orth">    0.17    0.17</time>
   <time name="total">   26.53   26.57</time>
   <energy>
    <i name="e_fr_energy">    -42.52091951 </i>
    <i name="e_wo_entrp">    -42.52130385 </i>
    <i name="e_0_energy">    -42.52101559 </i>
   </energy>
  </scstep>
  <scstep>
   <time name="diag">    5.58    5.58</time>
   <time name="diis">   22.03   22.06</time>
   <time name="orth">    0.17    0.17</time>
   <time name="total">   30.91   30.94</time>
   <energy>
    <i name="e_fr_energy">    -42.88579310 </i>
    <i name="e_wo_entrp">    -42.88344247 </i>
    <i name="e_0_energy">    -42.88520544 </i>
   </energy>
  </scstep>
  <scstep>
   <time name="diag">    5.58    5.59</time>
   <time name="diis">   17.86   17.88</time>
   <time name="orth">    0.17    0.17</time>
   <time name="total">   26.74   26.78</time>
   <energy>
    <i name="e_fr_energy">    -42.94513199 </i>
    <i name="e_wo_entrp">    -42.94275821 </i>
    <i name="e_0_energy">    -42.94453855 </i>
   </energy>
  </scstep>
  <scstep>
   <time name="diag">    5.58    5.58</time>
   <time name="diis">   18.74   18.76</time>
   <time name="orth">    0.17    0.17</time>
   <time name="total">   27.62   27.65</time>
   <energy>
    <i name="e_fr_energy">    -43.16530077 </i>
    <i name="e_wo_entrp">    -43.16534786 </i>
    <i name="e_0_energy">    -43.16531254 </i>
   </energy>
  </scstep>
  <scstep>
   <time name="diag">    5.58    5.59</time>
   <time name="diis">   20.72   20.74</time>
   <time name="orth">    0.17    0.17</time>
   <time name="total">   29.60   29.63</time>
   <energy>
    <i name="e_fr_energy">    -42.99776995 </i>
    <i name="e_wo_entrp">    -42.99562973 </i>
    <i name="e_0_energy">    -42.99723489 </i>
   </energy>
  </scstep>
  <scstep>
   <time name="diag">    5.58    5.58</time>
   <time name="diis">   22.18   22.21</time>
   <time name="orth">    0.17    0.17</time>
   <time name="total">   31.07   31.20</time>
   <energy>
    <i name="e_fr_energy">    -42.94423570 </i>
    <i name="e_wo_entrp">    -42.94169091 </i>
    <i name="e_0_energy">    -42.94359950 </i>
   </energy>
  </scstep>
  <scstep>
   <time name="diag">    5.60    5.60</time>
   <time name="diis">   19.13   19.15</time>
   <time name="orth">    0.17    0.17</time>
   <time name="total">   28.02   28.08</time>
   <energy>
    <i name="e_fr_energy">    -42.92622108 </i>
    <i name="e_wo_entrp">    -42.92415964 </i>
    <i name="e_0_energy">    -42.92570572 </i>
   </energy>
  </scstep>
  <scstep>
   <time name="diag">    5.58    5.59</time>
   <time name="diis">   17.41   17.43</time>
   <time name="orth">    0.17    0.17</time>
   <time name="total">   26.29   26.32</time>
   <energy>
    <i name="e_fr_energy">    -42.98310266 </i>
    <i name="e_wo_entrp">    -42.98097265 </i>
    <i name="e_0_energy">    -42.98257016 </i>
   </energy>
  </scstep>
  <scstep>
   <time name="diag">    5.57    5.58</time>
   <time name="diis">   21.02   21.05</time>
   <time name="orth">    0.17    0.17</time>
   <time name="total">   29.90   29.93</time>
   <energy>
    <i name="e_fr_energy">    -42.96001136 </i>
    <i name="e_wo_entrp">    -42.95800387 </i>
    <i name="e_0_energy">    -42.95950949 </i>
   </energy>
  </scstep>
  <scstep>
   <time name="diag">    5.58    5.58</time>
   <time name="diis">   23.27   23.30</time>
   <time name="orth">    0.17    0.17</time>
   <time name="total">   32.16   32.22</time>
   <energy>
    <i name="e_fr_energy">    -42.98279888 </i>
    <i name="e_wo_entrp">    -42.98092197 </i>
    <i name="e_0_energy">    -42.98232965 </i>
   </energy>
  </scstep>
  <scstep>
   <time name="diag">    5.60    5.60</time>
   <time name="diis">   21.84   21.87</time>
   <time name="orth">    0.17    0.17</time>
   <time name="total">   30.75   30.79</time>
   <energy>
    <i name="e_fr_energy">    -42.98276110 </i>
    <i name="e_wo_entrp">    -42.98090510 </i>
    <i name="e_0_energy">    -42.98229710 </i>
   </energy>
  </scstep>
  <scstep>
   <time name="diag">    5.59    5.59</time>
   <time name="diis">   18.14   18.16</time>
   <time name="orth">    0.17    0.17</time>
   <time name="total">   27.04   27.07</time>
   <energy>
    <i name="e_fr_energy">    -42.98058677 </i>
    <i name="e_wo_entrp">    -42.97893402 </i>
    <i name="e_0_energy">    -42.98017358 </i>
   </energy>
  </scstep>
  <scstep>
   <time name="diag">    5.58    5.58</time>
   <time name="diis">   18.80   18.82</time>
   <time name="orth">    0.17    0.17</time>
   <time name="total">   27.68   27.71</time>
   <energy>
    <i name="e_fr_energy">    -42.89516036 </i>
    <i name="e_wo_entrp">    -42.89335528 </i>
    <i name="e_0_energy">    -42.89470909 </i>
   </energy>
  </scstep>
  <scstep>
   <time name="diag">    5.58    5.59</time>
   <time name="diis">   21.66   21.68</time>
   <time name="orth">    0.17    0.17</time>
   <time name="total">   30.55   30.58</time>
   <energy>
    <i name="e_fr_energy">    -42.82633477 </i>
    <i name="e_wo_entrp">    -42.82290496 </i>
    <i name="e_0_energy">    -42.82547732 </i>
   </energy>
  </scstep>
  <scstep>
   <time name="diag">    5.58    5.59</time>
   <time name="diis">   20.81   20.83</time>
   <time name="orth">    0.17    0.17</time>
   <time name="total">   29.70   29.78</time>
   <energy>
    <i name="e_fr_energy">    -42.66020490 </i>
    <i name="e_wo_entrp">    -42.65828063 </i>
    <i name="e_0_energy">    -42.65972383 </i>
   </energy>
  </scstep>
  <scstep>
   <time name="diag">    5.60    5.61</time>
   <time name="diis">   19.86   19.89</time>
   <time name="orth">    0.17    0.17</time>
   <time name="total">   28.79   28.82</time>
   <energy>
    <i name="e_fr_energy">    -42.43869481 </i>
    <i name="e_wo_entrp">    -42.43919796 </i>
    <i name="e_0_energy">    -42.43882060 </i>
   </energy>
  </scstep>
  <scstep>
   <time name="diag">    5.60    5.61</time>
   <time name="diis">   21.72   21.74</time>
   <time name="orth">    0.17    0.17</time>
   <time name="total">   30.64   30.68</time>
   <energy>
    <i name="e_fr_energy">    -42.30013537 </i>
    <i name="e_wo_entrp">    -42.30041848 </i>
    <i name="e_0_energy">    -42.30020615 </i>
   </energy>
  </scstep>
  <scstep>
   <time name="diag">    5.58    5.59</time>
   <time name="diis">   23.19   23.22</time>
   <time name="orth">    0.17    0.17</time>
   <time name="total">   32.08   32.12</time>
   <energy>
    <i name="e_fr_energy">    -42.27305680 </i>
    <i name="e_wo_entrp">    -42.27419249 </i>
    <i name="e_0_energy">    -42.27334072 </i>
   </energy>
  </scstep>
  <scstep>
   <time name="diag">    5.58    5.59</time>
   <time name="diis">   19.06   19.08</time>
   <time name="orth">    0.17    0.17</time>
   <time name="total">   27.95   27.99</time>
   <energy>
    <i name="e_fr_energy">    -42.30465737 </i>
    <i name="e_wo_entrp">    -42.30555172 </i>
    <i name="e_0_energy">    -42.30488096 </i>
   </energy>
  </scstep>
  <scstep>
   <time name="diag">    5.58    5.58</time>
   <time name="diis">   22.99   23.02</time>
   <time name="orth">    0.17    0.17</time>
   <time name="total">   31.88   31.92</time>
   <energy>
    <i name="e_fr_energy">    -42.33883946 </i>
    <i name="e_wo_entrp">    -42.33955781 </i>
    <i name="e_0_energy">    -42.33901904 </i>
   </energy>
  </scstep>
  <scstep>
   <time name="diag">    5.58    5.58</time>
   <time name="diis">   19.33   19.35</time>
   <time name="orth">    0.17    0.17</time>
   <time name="total">   28.23   28.26</time>
   <energy>
    <i name="e_fr_energy">    -42.31702375 </i>
    <i name="e_wo_entrp">    -42.31746881 </i>
    <i name="e_0_energy">    -42.31713501 </i>
   </energy>
  </scstep>
  <scstep>
   <time name="diag">    5.58    5.58</time>
   <time name="diis">   18.25   18.27</time>
   <time name="orth">    0.17    0.17</time>
   <time name="total">   27.14   27.18</time>
   <energy>
    <i name="e_fr_energy">    -42.01939455 </i>
    <i name="e_wo_entrp">    -42.01938741 </i>
    <i name="e_0_energy">    -42.01939277 </i>
   </energy>
  </scstep>
  <scstep>
   <time name="diag">    5.58    5.59</time>
   <time name="diis">   20.83   20.86</time>
   <time name="orth">    0.17    0.17</time>
   <time name="total">   29.74   29.77</time>
   <energy>
    <i name="e_fr_energy">    -41.88086778 </i>
    <i name="e_wo_entrp">    -41.88092229 </i>
    <i name="e_0_energy">    -41.88088141 </i>
   </energy>
  </scstep>
  <scstep>
   <time name="diag">    5.58    5.58</time>
   <time name="diis">   17.52   17.54</time>
   <time name="orth">    0.17    0.17</time>
   <time name="total">   26.42   26.46</time>
   <energy>
    <i name="e_fr_energy">    -42.01624742 </i>
    <i name="e_wo_entrp">    -42.01660185 </i>
    <i name="e_0_energy">    -42.01633603 </i>
   </energy>
  </scstep>
  <scstep>
   <time name="diag">    5.58    5.58</time>
   <time name="diis">   20.12   20.15</time>
   <time name="orth">    0.17    0.17</time>
   <time name="total">   29.02   29.06</time>
   <energy>
    <i name="e_fr_energy">    -42.07397985 </i>
    <i name="e_wo_entrp">    -42.07465011 </i>
    <i name="e_0_energy">    -42.07414741 </i>
   </energy>
  </scstep>
  <scstep>
   <time name="diag">    5.58    5.58</time>
   <time name="diis">   18.07   18.09</time>
   <time name="orth">    0.17    0.17</time>
   <time name="total">   26.98   27.01</time>
   <energy>
    <i name="e_fr_energy">    -42.01712970 </i>
    <i name="e_wo_entrp">    -42.01782899 </i>
    <i name="e_0_energy">    -42.01730453 </i>
   </energy>
  </scstep>
  <scstep>
   <time name="diag">    5.58    5.58</time>
   <time name="diis">   21.84   21.86</time>
   <time name="orth">    0.17    0.17</time>
   <time name="total">   30.74   30.77</time>
   <energy>
    <i name="e_fr_energy">    -42.00091904 </i>
    <i name="e_wo_entrp">    -42.00179685 </i>
    <i name="e_0_energy">    -42.00113849 </i>
   </energy>
  </scstep>
  <scstep>
   <time name="diag">    5.58    5.58</time>
   <time name="diis">   18.68   18.70</time>
   <time name="orth">    0.17    0.17</time>
   <time name="total">   27.58   27.61</time>
   <energy>
    <i name="e_fr_energy">    -42.00893491 </i>
    <i name="e_wo_entrp">    -42.01021761 </i>
    <i name="e_0_energy">    -42.00925558 </i>
   </energy>
  </scstep>
  <scstep>
   <time name="diag">    5.58    5.58</time>
   <time name="diis">   18.81   18.83</time>
   <time name="orth">    0.17    0.17</time>
   <time name="total">   27.72   27.75</time>
   <energy>
    <i name="e_fr_energy">    -41.76378853 </i>
    <i name="e_wo_entrp">    -41.76452219 </i>
    <i name="e_0_energy">    -41.76397195 </i>
   </energy>
  </scstep>
  <scstep>
   <time name="diag">    5.58    5.59</time>
   <time name="diis">   21.96   21.99</time>
   <time name="orth">    0.17    0.17</time>
   <time name="total">   30.88   30.91</time>
   <energy>
    <i name="e_fr_energy">    -41.95853024 </i>
    <i name="e_wo_entrp">    -41.96081067 </i>
    <i name="e_0_energy">    -41.95910034 </i>
   </energy>
  </scstep>
  <scstep>
   <time name="diag">    5.58    5.59</time>
   <time name="diis">   19.85   19.87</time>
   <time name="orth">    0.17    0.17</time>
   <time name="total">   28.75   28.78</time>
   <energy>
    <i name="e_fr_energy">    -42.14531160 </i>
    <i name="e_wo_entrp">    -42.14814512 </i>
    <i name="e_0_energy">    -42.14601998 </i>
   </energy>
  </scstep>
  <scstep>
   <time name="diag">    5.54    5.55</time>
   <time name="diis">   18.09   18.10</time>
   <time name="orth">    0.17    0.17</time>
   <time name="total">   26.95   26.97</time>
   <energy>
    <i name="e_fr_energy">    -42.52614666 </i>
    <i name="e_wo_entrp">    -42.52514864 </i>
    <i name="e_0_energy">    -42.52589715 </i>
   </energy>
  </scstep>
  <scstep>
   <time name="diag">    5.54    5.55</time>
   <time name="diis">   20.42   20.44</time>
   <time name="orth">    0.17    0.17</time>
   <time name="total">   29.29   29.31</time>
   <energy>
    <i name="e_fr_energy">    -42.63565418 </i>
    <i name="e_wo_entrp">    -42.63375999 </i>
    <i name="e_0_energy">    -42.63518064 </i>
   </energy>
  </scstep>
  <scstep>
   <time name="diag">    5.54    5.55</time>
   <time name="diis">   19.05   19.07</time>
   <time name="orth">    0.17    0.17</time>
   <time name="total">   27.96   27.98</time>
   <energy>
    <i name="e_fr_energy">    -42.82508588 </i>
    <i name="e_wo_entrp">    -42.82696908 </i>
    <i name="e_0_energy">    -42.82555668 </i>
   </energy>
  </scstep>
  <scstep>
   <time name="diag">    5.54    5.55</time>
   <time name="diis">   20.05   20.06</time>
   <time name="orth">    0.17    0.17</time>
   <time name="total">   28.94   28.96</time>
   <energy>
    <i name="e_fr_energy">    -42.80256497 </i>
    <i name="e_wo_entrp">    -42.80282991 </i>
    <i name="e_0_energy">    -42.80263120 </i>
   </energy>
  </scstep>
  <scstep>
   <time name="diag">    5.68    5.69</time>
   <time name="diis">   21.22   21.24</time>
   <time name="orth">    0.17    0.17</time>
   <time name="total">   30.23   30.26</time>
   <energy>
    <i name="e_fr_energy">    -42.86814807 </i>
    <i name="e_wo_entrp">    -42.86839271 </i>
    <i name="e_0_energy">    -42.86820923 </i>
   </energy>
  </scstep>
  <scstep>
   <time name="diag">    5.54    5.55</time>
   <time name="diis">   20.82   20.83</time>
   <time name="orth">    0.17    0.17</time>
   <time name="total">   29.68   29.71</time>
   <energy>
    <i name="e_fr_energy">    -42.85571551 </i>
    <i name="e_wo_entrp">    -42.85632516 </i>
    <i name="e_0_energy">    -42.85586792 </i>
   </energy>
  </scstep>
  <scstep>
   <time name="diag">    5.54    5.55</time>
   <time name="diis">   18.48   18.50</time>
   <time name="orth">    0.17    0.17</time>
   <time name="total">   27.35   27.37</time>
   <energy>
    <i name="e_fr_energy">    -42.81357500 </i>
    <i name="e_wo_entrp">    -42.81359460 </i>
    <i name="e_0_energy">    -42.81357990 </i>
   </energy>
  </scstep>
  <scstep>
   <time name="diag">    5.54    5.55</time>
   <time name="diis">   19.10   19.12</time>
   <time name="orth">    0.17    0.17</time>
   <time name="total">   25.13   25.15</time>
   <energy>
    <i name="alphaZ">    180.65182707 </i>
    <i name="ewald">   5164.45476024 </i>
    <i name="hartreedc">  -8869.93855071 </i>
    <i name="XCdc">     19.86792772 </i>
    <i name="pawpsdc">   3780.70642858 </i>
    <i name="pawaedc">  -3830.18138170 </i>
    <i name="eentropy">      0.00041963 </i>
    <i name="bandstr">    -54.22715335 </i>
    <i name="atom">   3565.76896863 </i>
    <i name="e_fr_energy">    -42.89675388 </i>
    <i name="e_wo_entrp">    -42.89717352 </i>
    <i name="e_0_energy">    -42.89685879 </i>
   </energy>
  </scstep>
  <structure>
   <crystal>
    <varray name="basis" >
     <v>       1.41000000       2.44200000       0.00000000 </v>
     <v>      -1.41000000       2.44200000       0.00000000 </v>
     <v>       0.00000000       0.00000000      20.00000000 </v>
    </varray>
    <i name="volume">    137.72880000 </i>
    <varray name="rec_basis" >
     <v>       0.35460993       0.20475020       0.00000000 </v>
     <v>      -0.35460993       0.20475020       0.00000000 </v>
     <v>       0.00000000       0.00000000       0.05000000 </v>
    </varray>
   </crystal>
   <varray name="positions" >
    <v>       0.00000000       0.00000000       0.00000000 </v>
    <v>       0.40828033       0.40828033       0.09970206 </v>
    <v>       0.81656066       0.81656066       0.19940411 </v>
    <v>       0.22484098       0.22484098       0.29910617 </v>
    <v>       0.63312131       0.63312131       0.39880822 </v>
    <v>       0.04140164       0.04140164       0.49851028 </v>
   </varray>
  </structure>
  <varray name="forces" >
   <v>       0.00000000       0.00186565       0.74527959 </v>
   <v>       0.00000000       0.31479170       0.47078374 </v>
   <v>       0.00000000      -0.17101614      -0.54842251 </v>
   <v>       0.00000000       0.03597389      -0.24820923 </v>
   <v>       0.00000000       0.03812693       0.94967168 </v>
   <v>       0.00000000      -0.21974203      -1.36910327 </v>
  </varray>
  <varray name="stress" >
   <v>    -176.87049674       0.00000000       0.00000000 </v>
   <v>       0.00000000    -211.83106170     -21.98680332 </v>
   <v>       0.00000000     -21.98680342    -128.87279475 </v>
  </varray>
  <energy>
   <i name="e_fr_energy">    -42.89675388 </i>
   <i name="e_wo_entrp">    -42.89685879 </i>
   <i name="e_0_energy">      0.00041963 </i>
  </energy>
  <time name="totalsc"> 1693.11 1697.28</time>
 </calculation>
 <calculation>
  <scstep>
   <time name="dav">   20.81   22.43</time>
   <time name="total">   23.93   25.57</time>
   <energy>
    <i name="alphaZ">    180.65182707 </i>
    <i name="ewald">   5225.25170621 </i>
    <i name="hartreedc">  -8928.94051518 </i>
    <i name="XCdc">     19.42752455 </i>
    <i name="pawpsdc">   3778.46874354 </i>
    <i name="pawaedc">  -3827.84456925 </i>
    <i name="eentropy">     -0.00154568 </i>
    <i name="bandstr">    -55.84460087 </i>
    <i name="atom">   3565.76896863 </i>
    <i name="e_fr_energy">    -43.06246098 </i>
    <i name="e_wo_entrp">    -43.06091530 </i>
    <i name="e_0_energy">    -43.06207456 </i>
   </energy>
  </scstep>
  <scstep>
   <time name="diag">    5.56    5.57</time>
   <time name="diis">   17.30   17.31</time>
   <time name="orth">    0.17    0.17</time>
   <time name="total">   26.20   26.22</time>
   <energy>
    <i name="e_fr_energy">    -43.63189437 </i>
    <i name="e_wo_entrp">    -43.63211315 </i>
    <i name="e_0_energy">    -43.63194907 </i>
   </energy>
  </scstep>
  <scstep>
   <time name="diag">    5.56    5.57</time>
   <time name="diis">   19.17   19.19</time>
   <time name="orth">    0.17    0.17</time>
   <time name="total">   28.03   28.05</time>
   <energy>
    <i name="e_fr_energy">    -43.32671885 </i>
    <i name="e_wo_entrp">    -43.32635630 </i>
    <i name="e_0_energy">    -43.32662821 </i>
   </energy>
  </scstep>
  <scstep>
   <time name="diag">    5.56    5.57</time>
   <time name="diis">   16.99   17.01</time>
   <time name="orth">    0.17    0.17</time>
   <time name="total">   25.94   26.07</time>
   <energy>
    <i name="e_fr_energy">    -43.26063256 </i>
    <i name="e_wo_entrp">    -43.26146310 </i>
    <i name="e_0_energy">    -43.26084019 </i>
   </energy>
  </scstep>
  <scstep>
   <time name="diag">    5.68    5.69</time>
   <time name="diis">   18.16   18.17</time>
   <time name="orth">    0.17    0.17</time>
   <time name="total">   27.17   27.22</time>
   <energy>
    <i name="e_fr_energy">    -43.25485485 </i>
    <i name="e_wo_entrp">    -43.25242521 </i>
    <i name="e_0_energy">    -43.25424744 </i>
   </energy>
  </scstep>
  <scstep>
   <time name="diag">    5.72    5.72</time>
   <time name="diis">   17.43   17.45</time>
   <time name="orth">    0.17    0.17</time>
   <time name="total">   26.46   26.48</time>
   <energy>
    <i name="e_fr_energy">    -43.19308526 </i>
    <i name="e_wo_entrp">    -43.19373200 </i>
    <i name="e_0_energy">    -43.19324695 </i>
   </energy>
  </scstep>
  <scstep>
   <time name="diag">    5.54    5.55</time>
   <time name="diis">   21.88   21.89</time>
   <time name="orth">    0.17    0.17</time>
   <time name="total">   30.69   30.72</time>
   <energy>
    <i name="e_fr_energy">    -43.21014180 </i>
    <i name="e_wo_entrp">    -43.21130168 </i>
    <i name="e_0_energy">    -43.21043177 </i>
   </energy>
  </scstep>
  <scstep>
   <time name="diag">    5.54    5.54</time>
   <time name="diis">   16.92   16.93</time>
   <time name="orth">    0.17    0.17</time>
   <time name="total">   25.78   25.80</time>
   <energy>
    <i name="e_fr_energy">    -43.19214416 </i>
    <i name="e_wo_entrp">    -43.19228312 </i>
    <i name="e_0_energy">    -43.19217890 </i>
   </energy>
  </scstep>
  <scstep>
   <time name="diag">    5.66    5.66</time>
   <time name="diis">   19.74   19.75</time>
   <time name="orth">    0.17    0.17</time>
   <time name="total">   28.68   28.73</time>
   <energy>
    <i name="e_fr_energy">    -43.18712376 </i>
    <i name="e_wo_entrp">    -43.18728405 </i>
    <i name="e_0_energy">    -43.18716383 </i>
   </energy>
  </scstep>
  <scstep>
   <time name="diag">    5.72    5.72</time>
   <time name="diis">   18.18   18.19</time>
   <time name="orth">    0.17    0.17</time>
   <time name="total">   27.23   27.29</time>
   <energy>
    <i name="e_fr_energy">    -43.18732614 </i>
    <i name="e_wo_entrp">    -43.18730192 </i>
    <i name="e_0_energy">    -43.18732009 </i>
   </energy>
  </scstep>
  <scstep>
   <time name="diag">    5.54    5.55</time>
   <time name="diis">   18.15   18.16</time>
   <time name="orth">    0.17    0.17</time>
   <time name="total">   26.97   26.99</time>
   <energy>
    <i name="e_fr_energy">    -43.16967589 </i>
    <i name="e_wo_entrp">    -43.17172628 </i>
    <i name="e_0_energy">    -43.17018849 </i>
   </energy>
  </scstep>
  <scstep>
   <time name="diag">    5.65    5.66</time>
   <time name="diis">   21.46   21.48</time>
   <time name="orth">    0.17    0.17</time>
   <time name="total">   30.49   30.59</time>
   <energy>
    <i name="e_fr_energy">    -43.17073105 </i>
    <i name="e_wo_entrp">    -43.17274680 </i>
    <i name="e_0_energy">    -43.17123498 </i>
   </energy>
  </scstep>
  <scstep>
   <time name="diag">    5.56    5.56</time>
   <time name="diis">   17.71   17.72</time>
   <time name="orth">    0.17    0.17</time>
   <time name="total">   26.56   26.58</time>
   <energy>
    <i name="e_fr_energy">    -43.10660000 </i>
    <i name="e_wo_entrp">    -43.11195947 </i>
    <i name="e_0_energy">    -43.10793987 </i>
   </energy>
  </scstep>
  <scstep>
   <time name="diag">    5.54    5.54</time>
   <time name="diis">   18.49   18.50</time>
   <time name="orth">    0.17    0.17</time>
   <time name="total">   27.39   27.41</time>
   <energy>
    <i name="e_fr_energy">    -43.05414130 </i>
    <i name="e_wo_entrp">    -43.05928339 </i>
    <i name="e_0_energy">    -43.05542683 </i>
   </energy>
  </scstep>
  <scstep>
   <time name="diag">    5.70    5.71</time>
   <time name="diis">   20.02   20.04</time>
   <time name="orth">    0.17    0.17</time>
   <time name="total">   29.04   29.06</time>
   <energy>
    <i name="e_fr_energy">    -43.07067489 </i>
    <i name="e_wo_entrp">    -43.07346029 </i>
    <i name="e_0_energy">    -43.07137124 </i>
   </energy>
  </scstep>
  <scstep>
   <time name="diag">    5.54    5.54</time>
   <time name="diis">   17.69   17.71</time>
   <time name="orth">    0.17    0.17</time>
   <time name="total">   26.59   26.64</time>
   <energy>
    <i name="e_fr_energy">    -43.10233067 </i>
    <i name="e_wo_entrp">    -43.10572363 </i>
    <i name="e_0_energy">    -43.10317891 </i>
   </energy>
  </scstep>
  <scstep>
   <time name="diag">    5.56    5.57</time>
   <time name="diis">   22.01   22.03</time>
   <time name="orth">    0.17    0.17</time>
   <time name="total">   30.86   31.02</time>
   <energy>
    <i name="e_fr_energy">    -43.10564306 </i>
    <i name="e_wo_entrp">    -43.10888889 </i>
    <i name="e_0_energy">    -43.10645452 </i>
   </energy>
  </scstep>
  <scstep>
   <time name="diag">    5.65    5.66</time>
   <time name="diis">   17.92   17.94</time>
   <time name="orth">    0.17    0.17</time>
   <time name="total">   26.87   26.96</time>
   <energy>
    <i name="e_fr_energy">    -43.11929628 </i>
    <i name="e_wo_entrp">    -43.12257975 </i>
    <i name="e_0_energy">    -43.12011714 </i>
   </energy>
  </scstep>
  <scstep>
   <time name="diag">    5.64    5.65</time>
   <time name="diis">   19.44   19.45</time>
   <time name="orth">    0.17    0.17</time>
   <time name="total">   28.44   28.50</time>
   <energy>
    <i name="e_fr_energy">    -43.13152102 </i>
    <i name="e_wo_entrp">    -43.13521919 </i>
    <i name="e_0_energy">    -43.13244556 </i>
   </energy>
  </scstep>
  <scstep>
   <time name="diag">    5.68    5.68</time>
   <time name="diis">   18.46   18.48</time>
   <time name="orth">    0.17    0.17</time>
   <time name="total">   27.44   27.54</time>
   <energy>
    <i name="e_fr_energy">    -43.12500613 </i>
    <i name="e_wo_entrp">    -43.12975133 </i>
    <i name="e_0_energy">    -43.12619243 </i>
   </energy>
  </scstep>
  <scstep>
   <time name="diag">    5.57    5.58</time>
   <time name="diis">   22.14   22.17</time>
   <time name="orth">    0.17    0.17</time>
   <time name="total">   31.10   31.25</time>
   <energy>
    <i name="e_fr_energy">    -43.12337204 </i>
    <i name="e_wo_entrp">    -43.12833132 </i>
    <i name="e_0_energy">    -43.12461186 </i>
   </energy>
  </scstep>
  <scstep>
   <time name="diag">    5.73    5.74</time>
   <time name="diis">   17.10   17.12</time>
   <time name="orth">    0.17    0.17</time>
   <time name="total">   26.14   26.21</time>
   <energy>
    <i name="e_fr_energy">    -43.11917260 </i>
    <i name="e_wo_entrp">    -43.12385898 </i>
    <i name="e_0_energy">    -43.12034420 </i>
   </energy>
  </scstep>
  <scstep>
   <time name="diag">    5.70    5.71</time>
   <time name="diis">   18.76   18.77</time>
   <time name="orth">    0.17    0.17</time>
   <time name="total">   27.82   27.85</time>
   <energy>
    <i name="e_fr_energy">    -43.10878456 </i>
    <i name="e_wo_entrp">    -43.11287444 </i>
    <i name="e_0_energy">    -43.10980703 </i>
   </energy>
  </scstep>
  <scstep>
   <time name="diag">    5.58    5.59</time>
   <time name="diis">   19.34   19.35</time>
   <time name="orth">    0.17    0.17</time>
   <time name="total">   28.22   28.24</time>
   <energy>
    <i name="e_fr_energy">    -43.11415942 </i>
    <i name="e_wo_entrp">    -43.11823028 </i>
    <i name="e_0_energy">    -43.11517714 </i>
   </energy>
  </scstep>
  <scstep>
   <time name="diag">    5.60    5.60</time>
   <time name="diis">   19.55   19.57</time>
   <time name="orth">    0.17    0.17</time>
   <time name="total">   28.51   28.54</time>
   <energy>
    <i name="e_fr_energy">    -43.13218433 </i>
    <i name="e_wo_entrp">    -43.13587263 </i>
    <i name="e_0_energy">    -43.13310641 </i>
   </energy>
  </scstep>
  <scstep>
   <time name="diag">    5.65    5.66</time>
   <time name="diis">   19.50   19.52</time>
   <time name="orth">    0.17    0.17</time>
   <time name="total">   28.46   28.52</time>
   <energy>
    <i name="e_fr_energy">    -43.15495165 </i>
    <i name="e_wo_entrp">    -43.15824772 </i>
    <i name="e_0_energy">    -43.15577566 </i>
   </energy>
  </scstep>
  <scstep>
   <time name="diag">    5.64    5.64</time>
   <time name="diis">   20.14   20.16</time>
   <time name="orth">    0.17    0.17</time>
   <time name="total">   29.11   29.17</time>
   <energy>
    <i name="e_fr_energy">    -43.16906080 </i>
    <i name="e_wo_entrp">    -43.17201670 </i>
    <i name="e_0_energy">    -43.16979978 </i>
   </energy>
  </scstep>
  <scstep>
   <time name="diag">    5.57    5.58</time>
   <time name="diis">   19.59   19.61</time>
   <time name="orth">    0.17    0.17</time>
   <time name="total">   28.47   28.50</time>
   <energy>
    <i name="e_fr_energy">    -43.17791856 </i>
    <i name="e_wo_entrp">    -43.18059337 </i>
    <i name="e_0_energy">    -43.17858726 </i>
   </energy>
  </scstep>
  <scstep>
   <time name="diag">    5.57    5.58</time>
   <time name="diis">   20.33   20.35</time>
   <time name="orth">    0.17    0.17</time>
   <time name="total">   29.22   29.25</time>
   <energy>
    <i name="e_fr_energy">    -43.18322301 </i>
    <i name="e_wo_entrp">    -43.18561581 </i>
    <i name="e_0_energy">    -43.18382121 </i>
   </energy>
  </scstep>
  <scstep>
   <time name="diag">    5.58    5.58</time>
   <time name="diis">   20.68   20.71</time>
   <time name="orth">    0.17    0.17</time>
   <time name="total">   29.58   29.61</time>
   <energy>
    <i name="e_fr_energy">    -43.18526675 </i>
    <i name="e_wo_entrp">    -43.18735022 </i>
    <i name="e_0_energy">    -43.18578762 </i>
   </energy>
  </scstep>
  <scstep>
   <time name="diag">    5.57    5.58</time>
   <time name="diis">   21.26   21.28</time>
   <time name="orth">    0.17    0.17</time>
   <time name="total">   30.15   30.18</time>
   <energy>
    <i name="e_fr_energy">    -43.18614636 </i>
    <i name="e_wo_entrp">    -43.18795461 </i>
    <i name="e_0_energy">    -43.18659842 </i>
   </energy>
  </scstep>
  <scstep>
   <time name="diag">    5.57    5.58</time>
   <time name="diis">   20.69   20.72</time>
   <time name="orth">    0.17    0.17</time>
   <time name="total">   29.58   29.61</time>
   <energy>
    <i name="e_fr_energy">    -43.18675762 </i>
    <i name="e_wo_entrp">    -43.18837721 </i>
    <i name="e_0_energy">    -43.18716252 </i>
   </energy>
  </scstep>
  <scstep>
   <time name="diag">    5.56    5.56</time>
   <time name="diis">   18.26   18.29</time>
   <time name="orth">    0.17    0.17</time>
   <time name="total">   27.13   27.36</time>
   <energy>
    <i name="e_fr_energy">    -43.18705569 </i>
    <i name="e_wo_entrp">    -43.18856749 </i>
    <i name="e_0_energy">    -43.18743364 </i>
   </energy>
  </scstep>
  <scstep>
   <time name="diag">    5.67    5.68</time>
   <time name="diis">   15.73   15.75</time>
   <time name="orth">    0.17    0.17</time>
   <time name="total">   24.72   25.63</time>
   <energy>
    <i name="e_fr_energy">    -43.18674035 </i>
    <i name="e_wo_entrp">    -43.18829216 </i>
    <i name="e_0_energy">    -43.18712830 </i>
   </energy>
  </scstep>
  <scstep>
   <time name="diag">    5.73    5.73</time>
   <time name="diis">   12.68   12.69</time>
   <time name="orth">    0.17    0.17</time>
   <time name="total">   21.82   21.88</time>
   <energy>
    <i name="e_fr_energy">    -43.18663060 </i>
    <i name="e_wo_entrp">    -43.18822924 </i>
    <i name="e_0_energy">    -43.18703026 </i>
   </energy>
  </scstep>
  <scstep>
   <time name="diag">    5.70    5.71</time>
   <time name="diis">   11.18   11.19</time>
   <time name="orth">    0.17    0.17</time>
   <time name="total">   20.21   20.23</time>
   <energy>
    <i name="e_fr_energy">    -43.18669447 </i>
    <i name="e_wo_entrp">    -43.18831100 </i>
    <i name="e_0_energy">    -43.18709861 </i>
   </energy>
  </scstep>
  <scstep>
   <time name="diag">    5.58    5.58</time>
   <time name="diis">   11.20   11.21</time>
   <time name="orth">    0.17    0.17</time>
   <time name="total">   20.09   20.14</time>
   <energy>
    <i name="e_fr_energy">    -43.18682989 </i>
    <i name="e_wo_entrp">    -43.18843494 </i>
    <i name="e_0_energy">    -43.18723115 </i>
   </energy>
  </scstep>
  <scstep>
   <time name="diag">    5.59    5.60</time>
   <time name="diis">   11.53   11.54</time>
   <time name="orth">    0.17    0.17</time>
   <time name="total">   20.44   20.45</time>
   <energy>
    <i name="e_fr_energy">    -43.18698415 </i>
    <i name="e_wo_entrp">    -43.18855511 </i>
    <i name="e_0_energy">    -43.18737689 </i>
   </energy>
  </scstep>
  <scstep>
   <time name="diag">    5.61    5.62</time>
   <time name="diis">   14.10   14.11</time>
   <time name="orth">    0.17    0.17</time>
   <time name="total">   23.02   23.05</time>
   <energy>
    <i name="e_fr_energy">    -43.18718792 </i>
    <i name="e_wo_entrp">    -43.18869376 </i>
    <i name="e_0_energy">    -43.18756438 </i>
   </energy>
  </scstep>
  <scstep>
   <time name="diag">    5.73    5.73</time>
   <time name="diis">   15.44   15.46</time>
   <time name="orth">    0.17    0.17</time>
   <time name="total">   24.50   24.52</time>
   <energy>
    <i name="e_fr_energy">    -43.18734069 </i>
    <i name="e_wo_entrp">    -43.18877129 </i>
    <i name="e_0_energy">    -43.18769834 </i>
   </energy>
  </scstep>
  <scstep>
   <time name="diag">    5.57    5.58</time>
   <time name="diis">   17.75   17.77</time>
   <time name="orth">    0.17    0.17</time>
   <time name="total">   26.65   26.68</time>
   <energy>
    <i name="e_fr_energy">    -43.18753092 </i>
    <i name="e_wo_entrp">    -43.18886687 </i>
    <i name="e_0_energy">    -43.18786491 </i>
   </energy>
  </scstep>
  <scstep>
   <time name="diag">    5.74    5.74</time>
   <time name="diis">   18.81   18.83</time>
   <time name="orth">    0.17    0.17</time>
   <time name="total">   27.96   27.99</time>
   <energy>
    <i name="e_fr_energy">    -43.18769045 </i>
    <i name="e_wo_entrp">    -43.18893725 </i>
    <i name="e_0_energy">    -43.18800215 </i>
   </energy>
  </scstep>
  <scstep>
   <time name="diag">    5.63    5.64</time>
   <time name="diis">   16.40   16.42</time>
   <time name="orth">    0.17    0.17</time>
   <time name="total">   25.38   25.44</time>
   <energy>
    <i name="e_fr_energy">    -43.18780769 </i>
    <i name="e_wo_entrp">    -43.18900861 </i>
    <i name="e_0_energy">    -43.18810792 </i>
   </energy>
  </scstep>
  <scstep>
   <time name="diag">    5.56    5.56</time>
   <time name="diis">   13.68   13.70</time>
   <time name="orth">    0.17    0.17</time>
   <time name="total">   22.58   22.60</time>
   <energy>
    <i name="e_fr_energy">    -43.18783554 </i>
    <i name="e_wo_entrp">    -43.18901817 </i>
    <i name="e_0_energy">    -43.18813120 </i>
   </energy>
  </scstep>
  <scstep>
   <time name="diag">    5.57    5.58</time>
   <time name="diis">   11.76   11.77</time>
   <time name="orth">    0.17    0.17</time>
   <time name="total">   20.67   20.70</time>
   <energy>
    <i name="e_fr_energy">    -43.18782553 </i>
    <i name="e_wo_entrp">    -43.18899970 </i>
    <i name="e_0_energy">    -43.18811907 </i>
   </energy>
  </scstep>
  <scstep>
   <time name="diag">    5.64    5.65</time>
   <time name="diis">   11.19   11.20</time>
   <time name="orth">    0.17    0.17</time>
   <time name="total">   20.16   20.18</time>
   <energy>
    <i name="e_fr_energy">    -43.18779062 </i>
    <i name="e_wo_entrp">    -43.18896230 </i>
    <i name="e_0_energy">    -43.18808354 </i>
   </energy>
  </scstep>
  <scstep>
   <time name="diag">    5.56    5.57</time>
   <time name="diis">   10.70   10.71</time>
   <time name="orth">    0.17    0.17</time>
   <time name="total">   19.66   19.68</time>
   <energy>
    <i name="e_fr_energy">    -43.18777904 </i>
    <i name="e_wo_entrp">    -43.18894973 </i>
    <i name="e_0_energy">    -43.18807171 </i>
   </energy>
  </scstep>
  <scstep>
   <time name="diag">    5.66    5.67</time>
   <time name="diis">   10.65   10.66</time>
   <time name="orth">    0.17    0.17</time>
   <time name="total">   16.80   16.82</time>
   <energy>
    <i name="alphaZ">    180.65182707 </i>
    <i name="ewald">   5225.25170621 </i>
    <i name="hartreedc">  -8932.03280667 </i>
    <i name="XCdc">     18.99079971 </i>
    <i name="pawpsdc">   3793.27859866 </i>
    <i name="pawaedc">  -3842.84959200 </i>
    <i name="eentropy">      0.00116603 </i>
    <i name="bandstr">    -52.24845108 </i>
    <i name="atom">   3565.76896863 </i>
    <i name="e_fr_energy">    -43.18778344 </i>
    <i name="e_wo_entrp">    -43.18894948 </i>
    <i name="e_0_energy">    -43.18807495 </i>
   </energy>
  </scstep>
  <structure>
   <crystal>
    <varray name="basis" >
     <v>       1.41000000       2.44200000       0.00000000 </v>
     <v>      -1.41000000       2.44200000       0.00000000 </v>
     <v>       0.00000000       0.00000000      20.00000000 </v>
    </varray>
    <i name="volume">    137.72880000 </i>
    <varray name="rec_basis" >
     <v>       0.35460993       0.20475020       0.00000000 </v>
     <v>      -0.35460993       0.20475020       0.00000000 </v>
     <v>       0.00000000       0.00000000       0.05000000 </v>
    </varray>
   </crystal>
   <varray name="positions" >
    <v>       0.00000000       0.00000000       0.00000000 </v>
    <v>       0.40828033       0.40828033       0.09970206 </v>
    <v>       0.81487141       0.81487141       0.19808124 </v>
    <v>       0.22519632       0.22519632       0.29850745 </v>
    <v>       0.63349792       0.63349792       0.40109896 </v>
    <v>       0.03923110       0.03923110       0.49520782 </v>
   </varray>
  </structure>
  <varray name="forces" >
   <v>       0.00000000       0.00090763       0.82644602 </v>
   <v>       0.00000000       0.36138350       0.25287935 </v>
   <v>       0.00000000      -0.25392246      -0.42713577 </v>
   <v>       0.00000000      -0.01009489      -0.08749905 </v>
   <v>       0.00000000       0.31029320       0.68003944 </v>
   <v>       0.00000000      -0.40856697      -1.24473000 </v>
  </varray>
  <varray name="stress" >
   <v>    -197.01042185       0.00000000       0.00000000 </v>
   <v>       0.00000000    -234.76313753     -22.19025276 </v>
   <v>       0.00000000     -22.19025257    -101.21291959 </v>
  </varray>
  <energy>
   <i name="e_fr_energy">    -43.18778344 </i>
   <i name="e_wo_entrp">    -43.18807495 </i>
   <i name="e_0_energy">      0.00116603 </i>
  </energy>
  <time name="totalsc"> 1273.26 1279.44</time>
 </calculation>
 <calculation>
  <scstep>
   <time name="dav">   20.88   21.12</time>
   <time name="total">   24.00   24.29</time>
   <energy>
    <i name="alphaZ">    180.65182707 </i>
    <i name="ewald">   5423.23466838 </i>
    <i name="hartreedc">  -9125.83675276 </i>
    <i name="XCdc">     19.53062182 </i>
    <i name="pawpsdc">   3793.28072814 </i>
    <i name="pawaedc">  -3842.85174715 </i>
    <i name="eentropy">      0.00015976 </i>
    <i name="bandstr">    -56.62716785 </i>
    <i name="atom">   3565.76896863 </i>
    <i name="e_fr_energy">    -42.84869396 </i>
    <i name="e_wo_entrp">    -42.84885371 </i>
    <i name="e_0_energy">    -42.84873389 </i>
   </energy>
  </scstep>
  <scstep>
   <time name="diag">    5.58    5.59</time>
   <time name="diis">   18.47   18.49</time>
   <time name="orth">    0.17    0.17</time>
   <time name="total">   27.37   27.40</time>
   <energy>
    <i name="e_fr_energy">    -58.58693054 </i>
    <i name="e_wo_entrp">    -58.58544797 </i>
    <i name="e_0_energy">    -58.58655990 </i>
   </energy>
  </scstep>
  <scstep>
   <time name="diag">    5.79    5.79</time>
   <time name="diis">   17.32   17.34</time>
   <time name="orth">    0.17    0.17</time>
   <time name="total">   26.54   26.56</time>
   <energy>
    <i name="e_fr_energy">    -47.98673709 </i>
    <i name="e_wo_entrp">    -47.98535154 </i>
    <i name="e_0_energy">    -47.98639070 </i>
   </energy>
  </scstep>
  <scstep>
   <time name="diag">    5.67    5.67</time>
   <time name="diis">   17.56   17.58</time>
   <time name="orth">    0.17    0.17</time>
   <time name="total">   26.56   26.59</time>
   <energy>
    <i name="e_fr_energy">    -43.47554319 </i>
    <i name="e_wo_entrp">    -43.47196801 </i>
    <i name="e_0_energy">    -43.47464939 </i>
   </energy>
  </scstep>
  <scstep>
   <time name="diag">    5.61    5.61</time>
   <time name="diis">   19.08   19.10</time>
   <time name="orth">    0.17    0.17</time>
   <time name="total">   28.06   28.09</time>
   <energy>
    <i name="e_fr_energy">    -43.73020120 </i>
    <i name="e_wo_entrp">    -43.73120885 </i>
    <i name="e_0_energy">    -43.73045312 </i>
   </energy>
  </scstep>
  <scstep>
   <time name="diag">    5.77    5.77</time>
   <time name="diis">   18.69   18.71</time>
   <time name="orth">    0.17    0.17</time>
   <time name="total">   27.86   27.89</time>
   <energy>
    <i name="e_fr_energy">    -43.40001410 </i>
    <i name="e_wo_entrp">    -43.39996889 </i>
    <i name="e_0_energy">    -43.40000280 </i>
   </energy>
  </scstep>
  <scstep>
   <time name="diag">    5.58    5.58</time>
   <time name="diis">   19.16   19.18</time>
   <time name="orth">    0.17    0.17</time>
   <time name="total">   28.06   28.08</time>
   <energy>
    <i name="e_fr_energy">    -43.32059441 </i>
    <i name="e_wo_entrp">    -43.32035909 </i>
    <i name="e_0_energy">    -43.32053558 </i>
   </energy>
  </scstep>
  <scstep>
   <time name="diag">    5.70    5.70</time>
   <time name="diis">   17.89   17.91</time>
   <time name="orth">    0.17    0.17</time>
   <time name="total">   26.89   26.92</time>
   <energy>
    <i name="e_fr_energy">    -43.27219616 </i>
    <i name="e_wo_entrp">    -43.27287576 </i>
    <i name="e_0_energy">    -43.27236606 </i>
   </energy>
  </scstep>
  <scstep>
   <time name="diag">    5.59    5.60</time>
   <time name="diis">   19.02   19.04</time>
   <time name="orth">    0.17    0.17</time>
   <time name="total">   27.90   27.93</time>
   <energy>
    <i name="e_fr_energy">    -43.28511121 </i>
    <i name="e_wo_entrp">    -43.28444963 </i>
    <i name="e_0_energy">    -43.28494581 </i>
   </energy>
  </scstep>
  <scstep>
   <time name="diag">    5.59    5.59</time>
   <time name="diis">   18.48   18.49</time>
   <time name="orth">    0.17    0.17</time>
   <time name="total">   27.46   27.49</time>
   <energy>
    <i name="e_fr_energy">    -43.27551998 </i>
    <i name="e_wo_entrp">    -43.27563645 </i>
    <i name="e_0_energy">    -43.27554910 </i>
   </energy>
  </scstep>
  <scstep>
   <time name="diag">    5.62    5.62</time>
   <time name="diis">   23.29   23.31</time>
   <time name="orth">    0.17    0.17</time>
   <time name="total">   32.20   32.23</time>
   <energy>
    <i name="e_fr_energy">    -43.27681714 </i>
    <i name="e_wo_entrp">    -43.27689976 </i>
    <i name="e_0_energy">    -43.27683779 </i>
   </energy>
  </scstep>
  <scstep>
   <time name="diag">    5.61    5.62</time>
   <time name="diis">   17.90   17.91</time>
   <time name="orth">    0.18    0.18</time>
   <time name="total">   26.88   26.91</time>
   <energy>
    <i name="e_fr_energy">    -43.27097360 </i>
    <i name="e_wo_entrp">    -43.27114884 </i>
    <i name="e_0_energy">    -43.27101741 </i>
   </energy>
  </scstep>
  <scstep>
   <time name="diag">    5.63    5.63</time>
   <time name="diis">   18.27   18.29</time>
   <time name="orth">    0.17    0.17</time>
   <time name="total">   27.24   27.27</time>
   <energy>
    <i name="e_fr_energy">    -43.25108372 </i>
    <i name="e_wo_entrp">    -43.25066292 </i>
    <i name="e_0_energy">    -43.25097852 </i>
   </energy>
  </scstep>
  <scstep>
   <time name="diag">    5.56    5.56</time>
   <time name="diis">   17.58   17.59</time>
   <time name="orth">    0.17    0.17</time>
   <time name="total">   26.45   26.48</time>
   <energy>
    <i name="e_fr_energy">    -43.25632761 </i>
    <i name="e_wo_entrp">    -43.25618818 </i>
    <i name="e_0_energy">    -43.25629275 </i>
   </energy>
  </scstep>
  <scstep>
   <time name="diag">    5.62    5.63</time>
   <time name="diis">   18.46   18.47</time>
   <time name="orth">    0.17    0.17</time>
   <time name="total">   27.37   27.40</time>
   <energy>
    <i name="e_fr_energy">    -43.26500092 </i>
    <i name="e_wo_entrp">    -43.26440463 </i>
    <i name="e_0_energy">    -43.26485185 </i>
   </energy>
  </scstep>
  <scstep>
   <time name="diag">    5.55    5.56</time>
   <time name="diis">   20.22   20.24</time>
   <time name="orth">    0.17    0.17</time>
   <time name="total">   29.10   29.13</time>
   <energy>
    <i name="e_fr_energy">    -43.24178237 </i>
    <i name="e_wo_entrp">    -43.24243449 </i>
    <i name="e_0_energy">    -43.24194540 </i>
   </energy>
  </scstep>
  <scstep>
   <time name="diag">    5.62    5.63</time>
   <time name="diis">   20.67   20.70</time>
   <time name="orth">    0.17    0.17</time>
   <time name="total">   29.63   29.66</time>
   <energy>
    <i name="e_fr_energy">    -43.24167562 </i>
    <i name="e_wo_entrp">    -43.24299236 </i>
    <i name="e_0_energy">    -43.24200480 </i>
   </energy>
  </scstep>
  <scstep>
   <time name="diag">    5.63    5.64</time>
   <time name="diis">   21.17   21.19</time>
   <time name="orth">    0.17    0.17</time>
   <time name="total">   30.14   30.17</time>
   <energy>
    <i name="e_fr_energy">    -43.24513580 </i>
    <i name="e_wo_entrp">    -43.24602503 </i>
    <i name="e_0_energy">    -43.24535810 </i>
   </energy>
  </scstep>
  <scstep>
   <time name="diag">    5.80    5.81</time>
   <time name="diis">   21.82   21.84</time>
   <time name="orth">    0.17    0.17</time>
   <time name="total">   30.96   30.99</time>
   <energy>
    <i name="e_fr_energy">    -43.24473725 </i>
    <i name="e_wo_entrp">    -43.24549536 </i>
    <i name="e_0_energy">    -43.24492678 </i>
   </energy>
  </scstep>
  <scstep>
   <time name="diag">    5.61    5.62</time>
   <time name="diis">   17.73   17.75</time>
   <time name="orth">    0.18    0.17</time>
   <time name="total">   26.78   26.81</time>
   <energy>
    <i name="e_fr_energy">    -43.23799369 </i>
    <i name="e_wo_entrp">    -43.23880360 </i>
    <i name="e_0_energy">    -43.23819617 </i>
   </energy>
  </scstep>
  <scstep>
   <time name="diag">    5.70    5.71</time>
   <time name="diis">   19.68   19.70</time>
   <time name="orth">    0.18    0.17</time>
   <time name="total">   28.73   28.76</time>
   <energy>
    <i name="e_fr_energy">    -43.24024381 </i>
    <i name="e_wo_entrp">    -43.23983901 </i>
    <i name="e_0_energy">    -43.24014261 </i>
   </energy>
  </scstep>
  <scstep>
   <time name="diag">    5.61    5.62</time>
   <time name="diis">   18.01   18.03</time>
   <time name="orth">    0.17    0.17</time>
   <time name="total">   27.02   27.05</time>
   <energy>
    <i name="e_fr_energy">    -43.25251908 </i>
    <i name="e_wo_entrp">    -43.25143984 </i>
    <i name="e_0_energy">    -43.25224927 </i>
   </energy>
  </scstep>
  <scstep>
   <time name="diag">    5.74    5.74</time>
   <time name="diis">   20.50   20.53</time>
   <time name="orth">    0.17    0.17</time>
   <time name="total">   29.56   29.59</time>
   <energy>
    <i name="e_fr_energy">    -43.25878078 </i>
    <i name="e_wo_entrp">    -43.25763795 </i>
    <i name="e_0_energy">    -43.25849507 </i>
   </energy>
  </scstep>
  <scstep>
   <time name="diag">    5.57    5.57</time>
   <time name="diis">   18.52   18.55</time>
   <time name="orth">    0.17    0.17</time>
   <time name="total">   27.39   27.45</time>
   <energy>
    <i name="e_fr_energy">    -43.26203455 </i>
    <i name="e_wo_entrp">    -43.25980617 </i>
    <i name="e_0_energy">    -43.26147746 </i>
   </energy>
  </scstep>
  <scstep>
   <time name="diag">    5.73    5.74</time>
   <time name="diis">   18.80   18.83</time>
   <time name="orth">    0.18    0.17</time>
   <time name="total">   27.91   27.97</time>
   <energy>
    <i name="e_fr_energy">    -43.26146335 </i>
    <i name="e_wo_entrp">    -43.25808771 </i>
    <i name="e_0_energy">    -43.26061944 </i>
   </energy>
  </scstep>
  <scstep>
   <time name="diag">    5.62    5.62</time>
   <time name="diis">   22.68   22.70</time>
   <time name="orth">    0.17    0.17</time>
   <time name="total">   31.61   31.64</time>
   <energy>
    <i name="e_fr_energy">    -43.26041959 </i>
    <i name="e_wo_entrp">    -43.25674614 </i>
    <i name="e_0_energy">    -43.25950122 </i>
   </energy>
  </scstep>
  <scstep>
   <time name="diag">    5.72    5.73</time>
   <time name="diis">   17.93   17.95</time>
   <time name="orth">    0.18    0.18</time>
   <time name="total">   27.05   27.31</time>
   <energy>
    <i name="e_fr_energy">    -43.26427960 </i>
    <i name="e_wo_entrp">    -43.26137727 </i>
    <i name="e_0_energy">    -43.26355402 </i>
   </energy>
  </scstep>
  <scstep>
   <time name="diag">    5.66    5.66</time>
   <time name="diis">   21.21   21.23</time>
   <time name="orth">    0.17    0.17</time>
   <time name="total">   30.18   30.21</time>
   <energy>
    <i name="e_fr_energy">    -43.27330652 </i>
    <i name="e_wo_entrp">    -43.27059449 </i>
    <i name="e_0_energy">    -43.27262851 </i>
   </energy>
  </scstep>
  <scstep>
   <time name="diag">    5.66    5.67</time>
   <time name="diis">   21.98   22.01</time>
   <time name="orth">    0.17    0.17</time>
   <time name="total">   31.04   31.07</time>
   <energy>
    <i name="e_fr_energy">    -43.27696494 </i>
    <i name="e_wo_entrp">    -43.27425206 </i>
    <i name="e_0_energy">    -43.27628672 </i>
   </energy>
  </scstep>
  <scstep>
   <time name="diag">    5.58    5.59</time>
   <time name="diis">   17.50   17.53</time>
   <time name="orth">    0.17    0.17</time>
   <time name="total">   26.40   26.43</time>
   <energy>
    <i name="e_fr_energy">    -43.27795424 </i>
    <i name="e_wo_entrp">    -43.27524132 </i>
    <i name="e_0_energy">    -43.27727601 </i>
   </energy>
  </scstep>
  <scstep>
   <time name="diag">    5.57    5.58</time>
   <time name="diis">   17.91   17.93</time>
   <time name="orth">    0.17    0.17</time>
   <time name="total">   26.84   26.87</time>
   <energy>
    <i name="e_fr_energy">    -43.26848749 </i>
    <i name="e_wo_entrp">    -43.26635788 </i>
    <i name="e_0_energy">    -43.26795509 </i>
   </energy>
  </scstep>
  <scstep>
   <time name="diag">    5.75    5.75</time>
   <time name="diis">   19.99   20.01</time>
   <time name="orth">    0.18    0.18</time>
   <time name="total">   29.11   29.14</time>
   <energy>
    <i name="e_fr_energy">    -43.25691977 </i>
    <i name="e_wo_entrp">    -43.25599658 </i>
    <i name="e_0_energy">    -43.25668898 </i>
   </energy>
  </scstep>
  <scstep>
   <time name="diag">    5.56    5.57</time>
   <time name="diis">   19.42   19.45</time>
   <time name="orth">    0.17    0.17</time>
   <time name="total">   28.30   28.33</time>
   <energy>
    <i name="e_fr_energy">    -43.22405358 </i>
    <i name="e_wo_entrp">    -43.22495381 </i>
    <i name="e_0_energy">    -43.22427864 </i>
   </energy>
  </scstep>
  <scstep>
   <time name="diag">    5.70    5.71</time>
   <time name="diis">   22.04   22.06</time>
   <time name="orth">    0.17    0.17</time>
   <time name="total">   31.13   31.18</time>
   <energy>
    <i name="e_fr_energy">    -43.21788450 </i>
    <i name="e_wo_entrp">    -43.21940706 </i>
    <i name="e_0_energy">    -43.21826514 </i>
   </energy>
  </scstep>
  <scstep>
   <time name="diag">    5.68    5.68</time>
   <time name="diis">   22.30   22.33</time>
   <time name="orth">    0.17    0.17</time>
   <time name="total">   31.34   31.38</time>
   <energy>
    <i name="e_fr_energy">    -43.21864439 </i>
    <i name="e_wo_entrp">    -43.22030048 </i>
    <i name="e_0_energy">    -43.21905841 </i>
   </energy>
  </scstep>
  <scstep>
   <time name="diag">    5.56    5.57</time>
   <time name="diis">   21.19   21.22</time>
   <time name="orth">    0.17    0.17</time>
   <time name="total">   30.11   30.14</time>
   <energy>
    <i name="e_fr_energy">    -43.21867366 </i>
    <i name="e_wo_entrp">    -43.22035852 </i>
    <i name="e_0_energy">    -43.21909487 </i>
   </energy>
  </scstep>
  <scstep>
   <time name="diag">    5.71    5.72</time>
   <time name="diis">   19.71   19.73</time>
   <time name="orth">    0.17    0.17</time>
   <time name="total">   28.82   28.85</time>
   <energy>
    <i name="e_fr_energy">    -43.21760553 </i>
    <i name="e_wo_entrp">    -43.21935055 </i>
    <i name="e_0_energy">    -43.21804178 </i>
   </energy>
  </scstep>
  <scstep>
   <time name="diag">    5.56    5.57</time>
   <time name="diis">   19.28   19.30</time>
   <time name="orth">    0.17    0.17</time>
   <time name="total">   28.17   28.20</time>
   <energy>
    <i name="e_fr_energy">    -43.21633963 </i>
    <i name="e_wo_entrp">    -43.21813139 </i>
    <i name="e_0_energy">    -43.21678757 </i>
   </energy>
  </scstep>
  <scstep>
   <time name="diag">    5.67    5.68</time>
   <time name="diis">   19.32   19.34</time>
   <time name="orth">    0.17    0.17</time>
   <time name="total">   28.31   28.37</time>
   <energy>
    <i name="e_fr_energy">    -43.21468777 </i>
    <i name="e_wo_entrp">    -43.21637459 </i>
    <i name="e_0_energy">    -43.21510948 </i>
   </energy>
  </scstep>
  <scstep>
   <time name="diag">    5.63    5.64</time>
   <time name="diis">   19.92   19.95</time>
   <time name="orth">    0.17    0.17</time>
   <time name="total">   28.90   28.94</time>
   <energy>
    <i name="e_fr_energy">    -43.21163781 </i>
    <i name="e_wo_entrp">    -43.21330625 </i>
    <i name="e_0_energy">    -43.21205492 </i>
   </energy>
  </scstep>
  <scstep>
   <time name="diag">    5.65    5.66</time>
   <time name="diis">   19.71   19.73</time>
   <time name="orth">    0.17    0.17</time>
   <time name="total">   28.71   28.77</time>
   <energy>
    <i name="e_fr_energy">    -43.21932462 </i>
    <i name="e_wo_entrp">    -43.22202237 </i>
    <i name="e_0_energy">    -43.21999906 </i>
   </energy>
  </scstep>
  <scstep>
   <time name="diag">    5.60    5.61</time>
   <time name="diis">   22.36   22.39</time>
   <time name="orth">    0.17    0.17</time>
   <time name="total">   31.31   31.34</time>
   <energy>
    <i name="e_fr_energy">    -43.22526581 </i>
    <i name="e_wo_entrp">    -43.22758666 </i>
    <i name="e_0_energy">    -43.22584602 </i>
   </energy>
  </scstep>
  <scstep>
   <time name="diag">    5.58    5.59</time>
   <time name="diis">   18.00   18.02</time>
   <time name="orth">    0.17    0.17</time>
   <time name="total">   26.93   26.99</time>
   <energy>
    <i name="e_fr_energy">    -43.22739880 </i>
    <i name="e_wo_entrp">    -43.22934025 </i>
    <i name="e_0_energy">    -43.22788416 </i>
   </energy>
  </scstep>
  <scstep>
   <time name="diag">    5.72    5.72</time>
   <time name="diis">   20.26   20.28</time>
   <time name="orth">    0.17    0.17</time>
   <time name="total">   29.32   29.36</time>
   <energy>
    <i name="e_fr_energy">    -43.23254761 </i>
    <i name="e_wo_entrp">    -43.23448414 </i>
    <i name="e_0_energy">    -43.23303174 </i>
   </energy>
  </scstep>
  <scstep>
   <time name="diag">    5.56    5.57</time>
   <time name="diis">   17.99   18.01</time>
   <time name="orth">    0.17    0.17</time>
   <time name="total">   26.88   26.91</time>
   <energy>
    <i name="e_fr_energy">    -43.24589555 </i>
    <i name="e_wo_entrp">    -43.24739372 </i>
    <i name="e_0_energy">    -43.24627010 </i>
   </energy>
  </scstep>
  <scstep>
   <time name="diag">    5.75    5.76</time>
   <time name="diis">   18.90   18.93</time>
   <time name="orth">    0.17    0.17</time>
   <time name="total">   28.06   28.10</time>
   <energy>
    <i name="e_fr_energy">    -43.25460622 </i>
    <i name="e_wo_entrp">    -43.25598342 </i>
    <i name="e_0_energy">    -43.25495052 </i>
   </energy>
  </scstep>
  <scstep>
   <time name="diag">    5.63    5.63</time>
   <time name="diis">   21.01   21.03</time>
   <time name="orth">    0.17    0.17</time>
   <time name="total">   29.97   30.00</time>
   <energy>
    <i name="e_fr_energy">    -43.25697636 </i>
    <i name="e_wo_entrp">    -43.25815970 </i>
    <i name="e_0_energy">    -43.25727220 </i>
   </energy>
  </scstep>
  <scstep>
   <time name="diag">    5.68    5.68</time>
   <time name="diis">   19.82   19.84</time>
   <time name="orth">    0.17    0.17</time>
   <time name="total">   28.90   28.93</time>
   <energy>
    <i name="e_fr_energy">    -43.25729563 </i>
    <i name="e_wo_entrp">    -43.25832990 </i>
[...]
       <r>    12.1413     0.0000    31.0000 </r>
       <r>    12.2339     0.0000    31.0000 </r>
       <r>    12.3266     0.0000    31.0000 </r>
       <r>    12.4192     0.0000    31.0000 </r>
       <r>    12.5119     0.0000    31.0000 </r>
       <r>    12.6045     0.0000    31.0000 </r>
       <r>    12.6972     0.0000    31.0000 </r>
       <r>    12.7899     0.0000    31.0000 </r>
       <r>    12.8825     0.0000    31.0000 </r>
       <r>    12.9752     0.0000    31.0000 </r>
       <r>    13.0678     0.0000    31.0000 </r>
       <r>    13.1605     0.0000    31.0000 </r>
       <r>    13.2531     0.0000    31.0000 </r>
       <r>    13.3458     0.0000    31.0000 </r>
       <r>    13.4384     0.0000    31.0000 </r>
       <r>    13.5311     0.0000    31.0000 </r>
       <r>    13.6238     0.0000    31.0000 </r>
       <r>    13.7164     0.0000    31.0000 </r>
       <r>    13.8091     0.0000    31.0000 </r>
       <r>    13.9017     0.0000    31.0000 </r>
       <r>    13.9944     0.0000    31.0000 </r>
       <r>    14.0870     0.0000    31.0000 </r>
       <r>    14.1797     0.0000    31.0000 </r>
       <r>    14.2724     0.0000    31.0000 </r>
       <r>    14.3650     0.0000    31.0000 </r>
       <r>    14.4577     0.0000    31.0000 </r>
       <r>    14.5503     0.0000    31.0000 </r>
       <r>    14.6430     0.0000    31.0000 </r>
       <r>    14.7356     0.0000    31.0000 </r>
       <r>    14.8283     0.0000    31.0000 </r>
       <r>    14.9210     0.0000    31.0000 </r>
       <r>    15.0136     0.0000    31.0000 </r>
       <r>    15.1063     0.0000    31.0000 </r>
       <r>    15.1989     0.0000    31.0000 </r>
       <r>    15.2916     0.0000    31.0000 </r>
       <r>    15.3842     0.0000    31.0000 </r>
       <r>    15.4769     0.0000    31.0000 </r>
       <r>    15.5695     0.0000    31.0000 </r>
       <r>    15.6622     0.0000    31.0000 </r>
       <r>    15.7549     0.0000    31.0000 </r>
       <r>    15.8475     0.0000    31.0000 </r>
       <r>    15.9402     0.0000    31.0000 </r>
       <r>    16.0328     0.0000    31.0000 </r>
       <r>    16.1255     0.0000    31.0000 </r>
       <r>    16.2181     0.0000    31.0000 </r>
       <r>    16.3108     0.0000    31.0000 </r>
       <r>    16.4035     0.0000    31.0000 </r>
       <r>    16.4961     0.0000    31.0000 </r>
       <r>    16.5888     0.0000    31.0000 </r>
       <r>    16.6814     0.0000    31.0000 </r>
       <r>    16.7741     0.0000    31.0000 </r>
       <r>    16.8667     0.0000    31.0000 </r>
       <r>    16.9594     0.0000    31.0000 </r>
       <r>    17.0520     0.0000    31.0000 </r>
       <r>    17.1447     0.0000    31.0000 </r>
       <r>    17.2374     0.0000    31.0000 </r>
       <r>    17.3300     0.0000    31.0000 </r>
       <r>    17.4227     0.0000    31.0000 </r>
       <r>    17.5153     0.0000    31.0000 </r>
       <r>    17.6080     0.0000    31.0000 </r>
       <r>    17.7006     0.0000    31.0000 </r>
       <r>    17.7933     0.0000    31.0000 </r>
       <r>    17.8860     0.0000    31.0000 </r>
       <r>    17.9786     0.0000    31.0000 </r>
       <r>    18.0713     0.0000    31.0000 </r>
       <r>    18.1639     0.0000    31.0000 </r>
       <r>    18.2566     0.0000    31.0000 </r>
       <r>    18.3492     0.0000    31.0000 </r>
       <r>    18.4419     0.0000    31.0000 </r>
       <r>    18.5346     0.0000    31.0000 </r>
       <r>    18.6272     0.0000    31.0000 </r>
       <r>    18.7199     0.0000    31.0000 </r>
       <r>    18.8125     0.0000    31.0000 </r>
       <r>    18.9052     0.0000    31.0000 </r>
       <r>    18.9978     0.0000    31.0000 </r>
       <r>    19.0905     0.0000    31.0000 </r>
      </set>
      <set comment="spin 2">
       <r>    -8.7064     0.0000     0.0000 </r>
       <r>    -8.6138     0.0000     0.0000 </r>
       <r>    -8.5211     0.0000     0.0000 </r>
       <r>    -8.4285     0.0000     0.0000 </r>
       <r>    -8.3358     0.0000     0.0000 </r>
       <r>    -8.2432     0.0000     0.0000 </r>
       <r>    -8.1505     0.0000     0.0000 </r>
       <r>    -8.0578     0.0000     0.0000 </r>
       <r>    -7.9652     0.0000     0.0000 </r>
       <r>    -7.8725     0.0000     0.0000 </r>
       <r>    -7.7799     0.0000     0.0000 </r>
       <r>    -7.6872     0.0000     0.0000 </r>
       <r>    -7.5946     0.0000     0.0000 </r>
       <r>    -7.5019     0.0000     0.0000 </r>
       <r>    -7.4092     0.0000     0.0000 </r>
       <r>    -7.3166     0.0000     0.0000 </r>
       <r>    -7.2239     0.0000     0.0000 </r>
       <r>    -7.1313     0.0000     0.0000 </r>
       <r>    -7.0386     0.0006     0.0001 </r>
       <r>    -6.9460    -0.0051    -0.0004 </r>
       <r>    -6.8533     0.0299     0.0024 </r>
       <r>    -6.7607     0.1075     0.0123 </r>
       <r>    -6.6680     0.0033     0.0126 </r>
       <r>    -6.5753    -0.0412     0.0088 </r>
       <r>    -6.4827     0.4990     0.0550 </r>
       <r>    -6.3900     0.3794     0.0902 </r>
       <r>    -6.2974    -0.0445     0.0861 </r>
       <r>    -6.2047     0.0037     0.0864 </r>
       <r>    -6.1121    -0.0011     0.0863 </r>
       <r>    -6.0194     0.0091     0.0872 </r>
       <r>    -5.9267     0.0875     0.0953 </r>
       <r>    -5.8341     0.5942     0.1503 </r>
       <r>    -5.7414     0.2422     0.1728 </r>
       <r>    -5.6488     0.3807     0.2080 </r>
       <r>    -5.5561     0.8204     0.2841 </r>
       <r>    -5.4635     0.4346     0.3243 </r>
       <r>    -5.3708    -0.0389     0.3207 </r>
       <r>    -5.2781     0.0048     0.3212 </r>
       <r>    -5.1855    -0.0182     0.3195 </r>
       <r>    -5.0928     0.0849     0.3274 </r>
       <r>    -5.0002     0.6706     0.3895 </r>
       <r>    -4.9075     0.0623     0.3953 </r>
       <r>    -4.8149     0.0161     0.3968 </r>
       <r>    -4.7222     1.4165     0.5280 </r>
       <r>    -4.6296     1.1574     0.6352 </r>
       <r>    -4.5369     0.0125     0.6364 </r>
       <r>    -4.4442     0.6703     0.6985 </r>
       <r>    -4.3516     0.0296     0.7012 </r>
       <r>    -4.2589     0.4063     0.7389 </r>
       <r>    -4.1663     0.4526     0.7808 </r>
       <r>    -4.0736    -0.0755     0.7738 </r>
       <r>    -3.9810     1.6133     0.9233 </r>
       <r>    -3.8883     0.9037     1.0070 </r>
       <r>    -3.7956    -0.0249     1.0047 </r>
       <r>    -3.7030     1.0102     1.0984 </r>
       <r>    -3.6103     0.6254     1.1563 </r>
       <r>    -3.5177     1.7675     1.3201 </r>
       <r>    -3.4250     1.4096     1.4507 </r>
       <r>    -3.3324     0.3106     1.4795 </r>
       <r>    -3.2397     3.0398     1.7611 </r>
       <r>    -3.1471     3.3280     2.0695 </r>
       <r>    -3.0544     1.7194     2.2288 </r>
       <r>    -2.9617     1.8858     2.4035 </r>
       <r>    -2.8691     4.6315     2.8327 </r>
       <r>    -2.7764     3.0608     3.1163 </r>
       <r>    -2.6838     4.7882     3.5599 </r>
       <r>    -2.5911     5.2458     4.0460 </r>
       <r>    -2.4985     5.4161     4.5478 </r>
       <r>    -2.4058     2.6403     4.7925 </r>
       <r>    -2.3131     2.8525     5.0568 </r>
       <r>    -2.2205     4.6047     5.4834 </r>
       <r>    -2.1278     3.5984     5.8168 </r>
       <r>    -2.0352     5.7603     6.3506 </r>
       <r>    -1.9425     4.8991     6.8045 </r>
       <r>    -1.8499     6.5575     7.4121 </r>
       <r>    -1.7572     6.6788     8.0309 </r>
       <r>    -1.6645     5.9795     8.5850 </r>
       <r>    -1.5719     3.4872     8.9081 </r>
       <r>    -1.4792     3.1759     9.2023 </r>
       <r>    -1.3866     3.5357     9.5299 </r>
       <r>    -1.2939     4.4941     9.9464 </r>
       <r>    -1.2013     2.5462    10.1823 </r>
       <r>    -1.1086     5.3744    10.6802 </r>
       <r>    -1.0160     5.1712    11.1594 </r>
       <r>    -0.9233     6.1692    11.7310 </r>
       <r>    -0.8306     6.8773    12.3682 </r>
       <r>    -0.7380     2.9489    12.6415 </r>
       <r>    -0.6453     3.0176    12.9211 </r>
       <r>    -0.5527     3.4340    13.2392 </r>
       <r>    -0.4600     5.4249    13.7419 </r>
       <r>    -0.3674     6.4886    14.3431 </r>
       <r>    -0.2747     5.8876    14.8886 </r>
       <r>    -0.1820     3.2767    15.1922 </r>
       <r>    -0.0894     4.9949    15.6550 </r>
       <r>     0.0033     4.9584    16.1145 </r>
       <r>     0.0959     2.8231    16.3760 </r>
       <r>     0.1886     8.5297    17.1664 </r>
       <r>     0.2812     5.7546    17.6996 </r>
       <r>     0.3739     7.4353    18.3885 </r>
       <r>     0.4665     7.6567    19.0980 </r>
       <r>     0.5592     5.3446    19.5932 </r>
       <r>     0.6519     6.8944    20.2320 </r>
       <r>     0.7445     9.7527    21.1356 </r>
       <r>     0.8372     8.9626    21.9661 </r>
       <r>     0.9298     8.4519    22.7492 </r>
       <r>     1.0225     7.1436    23.4111 </r>
       <r>     1.1151     4.6774    23.8445 </r>
       <r>     1.2078     6.3533    24.4332 </r>
       <r>     1.3005     7.4479    25.1232 </r>
       <r>     1.3931     7.3658    25.8057 </r>
       <r>     1.4858     7.3655    26.4882 </r>
       <r>     1.5784     4.5814    26.9127 </r>
       <r>     1.6711     5.7044    27.4412 </r>
       <r>     1.7637    10.0012    28.3679 </r>
       <r>     1.8564     7.6188    29.0738 </r>
       <r>     1.9491     5.6182    29.5944 </r>
       <r>     2.0417     2.7997    29.8538 </r>
       <r>     2.1344     3.6192    30.1892 </r>
       <r>     2.2270     4.1822    30.5767 </r>
       <r>     2.3197     1.9256    30.7551 </r>
       <r>     2.4123    -0.0157    30.7536 </r>
       <r>     2.5050    -0.0108    30.7526 </r>
       <r>     2.5976     0.0086    30.7534 </r>
       <r>     2.6903    -0.0355    30.7501 </r>
       <r>     2.7830     0.2306    30.7715 </r>
       <r>     2.8756     0.6186    30.8288 </r>
       <r>     2.9683    -0.0709    30.8223 </r>
       <r>     3.0609     0.3870    30.8581 </r>
       <r>     3.1536     1.2559    30.9745 </r>
       <r>     3.2462     0.0211    30.9764 </r>
       <r>     3.3389    -0.0158    30.9750 </r>
       <r>     3.4316     0.0035    30.9753 </r>
       <r>     3.5242     0.0001    30.9753 </r>
       <r>     3.6169     0.0000    30.9753 </r>
       <r>     3.7095     0.0000    30.9753 </r>
       <r>     3.8022     0.0000    30.9753 </r>
       <r>     3.8948     0.0000    30.9753 </r>
       <r>     3.9875     0.0000    30.9753 </r>
       <r>     4.0801     0.0000    30.9753 </r>
       <r>     4.1728     0.0000    30.9753 </r>
       <r>     4.2655     0.0003    30.9753 </r>
       <r>     4.3581    -0.0001    30.9753 </r>
       <r>     4.4508    -0.0112    30.9743 </r>
       <r>     4.5434     0.1796    30.9909 </r>
       <r>     4.6361     0.1109    31.0012 </r>
       <r>     4.7287    -0.0143    30.9999 </r>
       <r>     4.8214     0.0012    31.0000 </r>
       <r>     4.9141     0.0001    31.0000 </r>
       <r>     5.0067     0.0000    31.0000 </r>
       <r>     5.0994     0.0000    31.0000 </r>
       <r>     5.1920     0.0000    31.0000 </r>
       <r>     5.2847     0.0000    31.0000 </r>
       <r>     5.3773     0.0000    31.0000 </r>
       <r>     5.4700     0.0000    31.0000 </r>
       <r>     5.5627     0.0000    31.0000 </r>
       <r>     5.6553     0.0000    31.0000 </r>
       <r>     5.7480     0.0000    31.0000 </r>
       <r>     5.8406     0.0000    31.0000 </r>
       <r>     5.9333     0.0000    31.0000 </r>
       <r>     6.0259     0.0000    31.0000 </r>
       <r>     6.1186     0.0000    31.0000 </r>
       <r>     6.2112     0.0000    31.0000 </r>
       <r>     6.3039     0.0000    31.0000 </r>
       <r>     6.3966     0.0000    31.0000 </r>
       <r>     6.4892     0.0000    31.0000 </r>
       <r>     6.5819     0.0000    31.0000 </r>
       <r>     6.6745     0.0000    31.0000 </r>
       <r>     6.7672     0.0000    31.0000 </r>
       <r>     6.8598     0.0000    31.0000 </r>
       <r>     6.9525     0.0000    31.0000 </r>
       <r>     7.0452     0.0000    31.0000 </r>
       <r>     7.1378     0.0000    31.0000 </r>
       <r>     7.2305     0.0000    31.0000 </r>
       <r>     7.3231     0.0000    31.0000 </r>
       <r>     7.4158     0.0000    31.0000 </r>
       <r>     7.5084     0.0000    31.0000 </r>
       <r>     7.6011     0.0000    31.0000 </r>
       <r>     7.6938     0.0000    31.0000 </r>
       <r>     7.7864     0.0000    31.0000 </r>
       <r>     7.8791     0.0000    31.0000 </r>
       <r>     7.9717     0.0000    31.0000 </r>
       <r>     8.0644     0.0000    31.0000 </r>
       <r>     8.1570     0.0000    31.0000 </r>
       <r>     8.2497     0.0000    31.0000 </r>
       <r>     8.3423     0.0000    31.0000 </r>
       <r>     8.4350     0.0000    31.0000 </r>
       <r>     8.5277     0.0000    31.0000 </r>
       <r>     8.6203     0.0000    31.0000 </r>
       <r>     8.7130     0.0000    31.0000 </r>
       <r>     8.8056     0.0000    31.0000 </r>
       <r>     8.8983     0.0000    31.0000 </r>
       <r>     8.9909     0.0000    31.0000 </r>
       <r>     9.0836     0.0000    31.0000 </r>
       <r>     9.1763     0.0000    31.0000 </r>
       <r>     9.2689     0.0000    31.0000 </r>
       <r>     9.3616     0.0000    31.0000 </r>
       <r>     9.4542     0.0000    31.0000 </r>
       <r>     9.5469     0.0000    31.0000 </r>
       <r>     9.6395     0.0000    31.0000 </r>
       <r>     9.7322     0.0000    31.0000 </r>
       <r>     9.8248     0.0000    31.0000 </r>
       <r>     9.9175     0.0000    31.0000 </r>
       <r>    10.0102     0.0000    31.0000 </r>
       <r>    10.1028     0.0000    31.0000 </r>
       <r>    10.1955     0.0000    31.0000 </r>
       <r>    10.2881     0.0000    31.0000 </r>
       <r>    10.3808     0.0000    31.0000 </r>
       <r>    10.4734     0.0000    31.0000 </r>
       <r>    10.5661     0.0000    31.0000 </r>
       <r>    10.6588     0.0000    31.0000 </r>
       <r>    10.7514     0.0000    31.0000 </r>
       <r>    10.8441     0.0000    31.0000 </r>
       <r>    10.9367     0.0000    31.0000 </r>
       <r>    11.0294     0.0000    31.0000 </r>
       <r>    11.1220     0.0000    31.0000 </r>
       <r>    11.2147     0.0000    31.0000 </r>
       <r>    11.3074     0.0000    31.0000 </r>
       <r>    11.4000     0.0000    31.0000 </r>
       <r>    11.4927     0.0000    31.0000 </r>
       <r>    11.5853     0.0000    31.0000 </r>
       <r>    11.6780     0.0000    31.0000 </r>
       <r>    11.7706     0.0000    31.0000 </r>
       <r>    11.8633     0.0000    31.0000 </r>
       <r>    11.9559     0.0000    31.0000 </r>
       <r>    12.0486     0.0000    31.0000 </r>
       <r>    12.1413     0.0000    31.0000 </r>
       <r>    12.2339     0.0000    31.0000 </r>
       <r>    12.3266     0.0000    31.0000 </r>
       <r>    12.4192     0.0000    31.0000 </r>
       <r>    12.5119     0.0000    31.0000 </r>
       <r>    12.6045     0.0000    31.0000 </r>
       <r>    12.6972     0.0000    31.0000 </r>
       <r>    12.7899     0.0000    31.0000 </r>
       <r>    12.8825     0.0000    31.0000 </r>
       <r>    12.9752     0.0000    31.0000 </r>
       <r>    13.0678     0.0000    31.0000 </r>
       <r>    13.1605     0.0000    31.0000 </r>
       <r>    13.2531     0.0000    31.0000 </r>
       <r>    13.3458     0.0000    31.0000 </r>
       <r>    13.4384     0.0000    31.0000 </r>
       <r>    13.5311     0.0000    31.0000 </r>
       <r>    13.6238     0.0000    31.0000 </r>
       <r>    13.7164     0.0000    31.0000 </r>
       <r>    13.8091     0.0000    31.0000 </r>
       <r>    13.9017     0.0000    31.0000 </r>
       <r>    13.9944     0.0000    31.0000 </r>
       <r>    14.0870     0.0000    31.0000 </r>
       <r>    14.1797     0.0000    31.0000 </r>
       <r>    14.2724     0.0000    31.0000 </r>
       <r>    14.3650     0.0000    31.0000 </r>
       <r>    14.4577     0.0000    31.0000 </r>
       <r>    14.5503     0.0000    31.0000 </r>
       <r>    14.6430     0.0000    31.0000 </r>
       <r>    14.7356     0.0000    31.0000 </r>
       <r>    14.8283     0.0000    31.0000 </r>
       <r>    14.9210     0.0000    31.0000 </r>
       <r>    15.0136     0.0000    31.0000 </r>
       <r>    15.1063     0.0000    31.0000 </r>
       <r>    15.1989     0.0000    31.0000 </r>
       <r>    15.2916     0.0000    31.0000 </r>
       <r>    15.3842     0.0000    31.0000 </r>
       <r>    15.4769     0.0000    31.0000 </r>
       <r>    15.5695     0.0000    31.0000 </r>
       <r>    15.6622     0.0000    31.0000 </r>
       <r>    15.7549     0.0000    31.0000 </r>
       <r>    15.8475     0.0000    31.0000 </r>
       <r>    15.9402     0.0000    31.0000 </r>
       <r>    16.0328     0.0000    31.0000 </r>
       <r>    16.1255     0.0000    31.0000 </r>
       <r>    16.2181     0.0000    31.0000 </r>
       <r>    16.3108     0.0000    31.0000 </r>
       <r>    16.4035     0.0000    31.0000 </r>
       <r>    16.4961     0.0000    31.0000 </r>
       <r>    16.5888     0.0000    31.0000 </r>
       <r>    16.6814     0.0000    31.0000 </r>
       <r>    16.7741     0.0000    31.0000 </r>
       <r>    16.8667     0.0000    31.0000 </r>
       <r>    16.9594     0.0000    31.0000 </r>
       <r>    17.0520     0.0000    31.0000 </r>
       <r>    17.1447     0.0000    31.0000 </r>
       <r>    17.2374     0.0000    31.0000 </r>
       <r>    17.3300     0.0000    31.0000 </r>
       <r>    17.4227     0.0000    31.0000 </r>
       <r>    17.5153     0.0000    31.0000 </r>
       <r>    17.6080     0.0000    31.0000 </r>
       <r>    17.7006     0.0000    31.0000 </r>
       <r>    17.7933     0.0000    31.0000 </r>
       <r>    17.8860     0.0000    31.0000 </r>
       <r>    17.9786     0.0000    31.0000 </r>
       <r>    18.0713     0.0000    31.0000 </r>
       <r>    18.1639     0.0000    31.0000 </r>
       <r>    18.2566     0.0000    31.0000 </r>
       <r>    18.3492     0.0000    31.0000 </r>
       <r>    18.4419     0.0000    31.0000 </r>
       <r>    18.5346     0.0000    31.0000 </r>
       <r>    18.6272     0.0000    31.0000 </r>
       <r>    18.7199     0.0000    31.0000 </r>
       <r>    18.8125     0.0000    31.0000 </r>
       <r>    18.9052     0.0000    31.0000 </r>
       <r>    18.9978     0.0000    31.0000 </r>
       <r>    19.0905     0.0000    31.0000 </r>
      </set>
     </set>
    </array>
   </total>
  </dos>
 </calculation>
 <structure name="finalpos" >
  <crystal>
   <varray name="basis" >
    <v>       1.41000000       2.44200000       0.00000000 </v>
    <v>      -1.41000000       2.44200000       0.00000000 </v>
    <v>       0.00000000       0.00000000      20.00000000 </v>
   </varray>
   <i name="volume">    137.72880000 </i>
   <varray name="rec_basis" >
    <v>       0.35460993       0.20475020       0.00000000 </v>
    <v>      -0.35460993       0.20475020       0.00000000 </v>
    <v>       0.00000000       0.00000000       0.05000000 </v>
   </varray>
  </crystal>
  <varray name="positions" >
   <v>       0.00000000       0.00000000       0.00000000 </v>
   <v>       0.40828033       0.40828033       0.09970206 </v>
   <v>       0.72675645       0.72675645       0.18719526 </v>
   <v>       0.39426246       0.39426246       0.27278756 </v>
   <v>       0.72069155       0.72069155       0.37333907 </v>
   <v>       0.05410010       0.05410010       0.46106683 </v>
  </varray>
  <varray name="selective"  type="logical" >
   <v type="logical" >  F  F  F </v>
   <v type="logical" >  F  F  F </v>
   <v type="logical" >  T  T  T </v>
   <v type="logical" >  T  T  T </v>
   <v type="logical" >  T  T  T </v>
   <v type="logical" >  T  T  T </v>
  </varray>
  <nose>
   <v>      -3.00000000       0.00000000       0.00010000       0.00010000 </v>
  </nose>
 </structure>
</modeling>
